/*--------------------------------*- C++ -*----------------------------------*\
| =========                 |                                                 |
| \\      /  F ield         | OpenFOAM: The Open Source CFD Toolbox           |
|  \\    /   O peration     | Version:  2.3.0                                 |
|   \\  /    A nd           | Web:      www.OpenFOAM.org                      |
|    \\/     M anipulation  |                                                 |
\*---------------------------------------------------------------------------*/
FoamFile
{
    version     2.0;
    format      ascii;
    class       volScalarField;
    location    "600";
    object      epsilon;
}
// * * * * * * * * * * * * * * * * * * * * * * * * * * * * * * * * * * * * * //

dimensions      [0 2 -3 0 0 0 0];

internalField   nonuniform List<scalar> 
6000
(
0.0140372
0.0140374
0.0140378
0.0140382
0.0140385
0.0140386
0.0140384
0.014038
0.0140376
0.0140373
0.00550844
0.0055085
0.0055086
0.0055087
0.00550877
0.00550877
0.00550871
0.0055086
0.00550849
0.00550843
0.00311814
0.00311816
0.00311822
0.00311827
0.00311831
0.0031183
0.00311827
0.00311821
0.00311815
0.00311812
0.00210505
0.00210507
0.00210511
0.00210515
0.00210517
0.00210516
0.00210513
0.00210509
0.00210506
0.00210504
0.00155933
0.00155935
0.00155938
0.00155941
0.00155942
0.00155941
0.00155938
0.00155935
0.00155933
0.00155932
0.00122057
0.00122058
0.0012206
0.00122062
0.00122063
0.00122062
0.0012206
0.00122057
0.00122056
0.00122055
0.000990005
0.000990016
0.000990034
0.000990049
0.000990052
0.000990042
0.000990023
0.000990003
0.000989989
0.000989986
0.000822731
0.000822739
0.000822753
0.000822764
0.000822765
0.000822756
0.000822739
0.000822723
0.000822712
0.000822711
0.000695576
0.000695582
0.000695593
0.000695601
0.0006956
0.000695592
0.000695578
0.000695564
0.000695556
0.000695557
0.000595444
0.000595447
0.000595455
0.000595461
0.000595459
0.000595452
0.00059544
0.00059543
0.000595424
0.000595424
0.000514396
0.000514398
0.000514403
0.000514406
0.000514405
0.000514398
0.000514389
0.00051438
0.000514376
0.000514377
0.000447357
0.000447357
0.00044736
0.000447362
0.00044736
0.000447355
0.000447348
0.000447341
0.000447338
0.000447339
0.000390941
0.00039094
0.000390941
0.000390942
0.00039094
0.000390935
0.00039093
0.000390925
0.000390923
0.000390924
0.00034281
0.000342808
0.000342808
0.000342808
0.000342806
0.000342802
0.000342798
0.000342795
0.000342793
0.000342794
0.000301309
0.000301306
0.000301304
0.000301304
0.000301302
0.000301299
0.000301296
0.000301294
0.000301293
0.000301294
0.000265238
0.000265234
0.000265232
0.00026523
0.000265229
0.000265227
0.000265225
0.000265224
0.000265223
0.000265224
0.000233715
0.00023371
0.000233708
0.000233706
0.000233705
0.000233704
0.000233703
0.000233702
0.000233702
0.000233702
0.000206083
0.000206078
0.000206075
0.000206073
0.000206072
0.000206071
0.000206071
0.000206071
0.000206071
0.000206071
0.000181846
0.000181841
0.000181838
0.000181836
0.000181835
0.000181835
0.000181835
0.000181835
0.000181836
0.000181836
0.000160627
0.000160622
0.000160618
0.000160617
0.000160616
0.000160616
0.000160616
0.000160617
0.000160617
0.000160618
0.000142131
0.000142126
0.000142123
0.000142122
0.000142121
0.000142121
0.000142122
0.000142123
0.000142123
0.000142123
0.000126126
0.000126121
0.000126118
0.000126117
0.000126117
0.000126117
0.000126118
0.000126118
0.000126119
0.000126119
0.000112418
0.000112413
0.000112411
0.000112409
0.000112409
0.00011241
0.00011241
0.000112411
0.000112412
0.000112412
0.00010084
0.000100836
0.000100834
0.000100833
0.000100833
0.000100833
0.000100834
0.000100834
0.000100835
0.000100835
9.12434e-05
9.12397e-05
9.12381e-05
9.12375e-05
9.12375e-05
9.12378e-05
9.12383e-05
9.12389e-05
9.12394e-05
9.12396e-05
8.34922e-05
8.3489e-05
8.34879e-05
8.34876e-05
8.34877e-05
8.34879e-05
8.34882e-05
8.34886e-05
8.34889e-05
8.3489e-05
7.74623e-05
7.74596e-05
7.74589e-05
7.7459e-05
7.74591e-05
7.74593e-05
7.74594e-05
7.74596e-05
7.74597e-05
7.74597e-05
7.30451e-05
7.30428e-05
7.30425e-05
7.3043e-05
7.30433e-05
7.30435e-05
7.30434e-05
7.30432e-05
7.30431e-05
7.30429e-05
7.01525e-05
7.01504e-05
7.01506e-05
7.01514e-05
7.0152e-05
7.01521e-05
7.01519e-05
7.01515e-05
7.0151e-05
7.01506e-05
6.87218e-05
6.87198e-05
6.87204e-05
6.87215e-05
6.87224e-05
6.87227e-05
6.87224e-05
6.87217e-05
6.87209e-05
6.87202e-05
6.87205e-05
6.87186e-05
6.87194e-05
6.87209e-05
6.87222e-05
6.87227e-05
6.87225e-05
6.87215e-05
6.87203e-05
6.87193e-05
7.01489e-05
7.01469e-05
7.01478e-05
7.01497e-05
7.01514e-05
7.01522e-05
7.01521e-05
7.0151e-05
7.01495e-05
7.0148e-05
7.30394e-05
7.30372e-05
7.3038e-05
7.30403e-05
7.30425e-05
7.30438e-05
7.30439e-05
7.30428e-05
7.30409e-05
7.30389e-05
7.74549e-05
7.74522e-05
7.74529e-05
7.74554e-05
7.74582e-05
7.74601e-05
7.74606e-05
7.74595e-05
7.74573e-05
7.74548e-05
8.34838e-05
8.34804e-05
8.34809e-05
8.34836e-05
8.34869e-05
8.34895e-05
8.34905e-05
8.34896e-05
8.34871e-05
8.3484e-05
9.12346e-05
9.12305e-05
9.12305e-05
9.12333e-05
9.12373e-05
9.12406e-05
9.12422e-05
9.12415e-05
9.12388e-05
9.12351e-05
0.000100831
0.000100826
0.000100826
0.000100829
0.000100833
0.000100837
0.00010084
0.000100839
0.000100836
0.000100832
0.000112411
0.000112405
0.000112403
0.000112406
0.000112411
0.000112416
0.000112419
0.000112419
0.000112416
0.000112411
0.000126121
0.000126114
0.000126112
0.000126115
0.00012612
0.000126126
0.00012613
0.000126131
0.000126128
0.000126122
0.00014213
0.000142122
0.000142119
0.000142121
0.000142127
0.000142133
0.000142138
0.000142139
0.000142137
0.000142131
0.00016063
0.000160621
0.000160616
0.000160618
0.000160624
0.000160631
0.000160637
0.000160639
0.000160636
0.00016063
0.000181854
0.000181844
0.000181839
0.00018184
0.000181845
0.000181853
0.00018186
0.000181863
0.000181861
0.000181855
0.000206097
0.000206086
0.000206079
0.000206079
0.000206084
0.000206092
0.0002061
0.000206104
0.000206103
0.000206097
0.000233737
0.000233724
0.000233716
0.000233714
0.000233718
0.000233726
0.000233735
0.000233741
0.000233741
0.000233736
0.000265268
0.000265254
0.000265244
0.00026524
0.000265243
0.000265251
0.000265261
0.000265269
0.000265271
0.000265267
0.000301349
0.000301334
0.000301321
0.000301315
0.000301316
0.000301324
0.000301335
0.000301344
0.000301349
0.000301348
0.000342861
0.000342845
0.00034283
0.000342821
0.000342819
0.000342826
0.000342838
0.000342851
0.000342859
0.00034286
0.000391005
0.000390988
0.000390969
0.000390956
0.000390952
0.000390957
0.00039097
0.000390986
0.000390998
0.000391002
0.000447436
0.000447418
0.000447396
0.000447378
0.000447369
0.000447373
0.000447387
0.000447406
0.000447423
0.000447432
0.000514491
0.000514472
0.000514447
0.000514423
0.00051441
0.000514411
0.000514426
0.000514449
0.000514472
0.000514485
0.000595559
0.000595539
0.000595509
0.000595479
0.000595459
0.000595457
0.000595473
0.000595501
0.00059553
0.00059555
0.000695713
0.000695693
0.000695659
0.000695621
0.000695594
0.000695587
0.000695603
0.000695636
0.000695674
0.000695701
0.000822893
0.000822872
0.000822833
0.000822787
0.00082275
0.000822738
0.000822754
0.000822793
0.000822839
0.000822876
0.000990197
0.000990177
0.000990133
0.000990076
0.000990028
0.000990008
0.000990024
0.000990068
0.000990125
0.000990173
0.00122079
0.00122078
0.00122073
0.00122066
0.0012206
0.00122057
0.00122058
0.00122063
0.0012207
0.00122076
0.00155961
0.00155959
0.00155953
0.00155945
0.00155937
0.00155932
0.00155933
0.00155939
0.00155948
0.00155956
0.0021054
0.00210539
0.00210532
0.00210521
0.0021051
0.00210504
0.00210504
0.00210511
0.00210522
0.00210533
0.00311864
0.00311862
0.00311852
0.00311837
0.0031182
0.0031181
0.0031181
0.0031182
0.00311836
0.00311852
0.0055094
0.00550938
0.0055092
0.00550888
0.00550855
0.00550834
0.00550834
0.00550854
0.00550884
0.00550915
0.0140406
0.0140408
0.0140402
0.0140391
0.0140378
0.0140368
0.0140366
0.0140371
0.0140382
0.0140395
0.0140372
0.0140375
0.0140378
0.0140382
0.0140385
0.0140386
0.0140384
0.0140381
0.0140376
0.0140374
0.00550844
0.0055085
0.0055086
0.00550871
0.00550877
0.00550878
0.00550872
0.00550861
0.0055085
0.00550844
0.00311814
0.00311817
0.00311822
0.00311828
0.00311831
0.00311831
0.00311827
0.00311822
0.00311816
0.00311813
0.00210506
0.00210507
0.00210511
0.00210515
0.00210517
0.00210517
0.00210514
0.0021051
0.00210506
0.00210504
0.00155933
0.00155935
0.00155938
0.00155941
0.00155942
0.00155941
0.00155939
0.00155936
0.00155933
0.00155932
0.00122057
0.00122058
0.00122061
0.00122063
0.00122063
0.00122062
0.0012206
0.00122058
0.00122056
0.00122055
0.000990007
0.000990017
0.000990036
0.000990052
0.000990055
0.000990046
0.000990027
0.000990006
0.000989992
0.000989989
0.000822732
0.00082274
0.000822755
0.000822766
0.000822768
0.000822759
0.000822742
0.000822725
0.000822714
0.000822713
0.000695578
0.000695583
0.000695595
0.000695603
0.000695603
0.000695594
0.00069558
0.000695567
0.000695558
0.000695558
0.000595445
0.000595449
0.000595457
0.000595462
0.000595461
0.000595454
0.000595442
0.000595431
0.000595425
0.000595426
0.000514397
0.000514398
0.000514404
0.000514408
0.000514406
0.0005144
0.00051439
0.000514382
0.000514377
0.000514378
0.000447358
0.000447358
0.000447361
0.000447363
0.000447362
0.000447356
0.000447349
0.000447342
0.000447339
0.00044734
0.000390941
0.00039094
0.000390942
0.000390942
0.000390941
0.000390936
0.000390931
0.000390926
0.000390923
0.000390924
0.000342811
0.000342808
0.000342808
0.000342808
0.000342807
0.000342803
0.000342799
0.000342795
0.000342794
0.000342795
0.000301309
0.000301306
0.000301305
0.000301304
0.000301302
0.0003013
0.000301297
0.000301294
0.000301293
0.000301294
0.000265238
0.000265234
0.000265232
0.000265231
0.000265229
0.000265227
0.000265225
0.000265224
0.000265223
0.000265224
0.000233715
0.00023371
0.000233708
0.000233706
0.000233705
0.000233704
0.000233703
0.000233702
0.000233702
0.000233702
0.000206083
0.000206078
0.000206075
0.000206073
0.000206072
0.000206071
0.000206071
0.000206071
0.000206071
0.000206071
0.000181846
0.000181841
0.000181838
0.000181836
0.000181835
0.000181835
0.000181835
0.000181835
0.000181835
0.000181836
0.000160627
0.000160621
0.000160618
0.000160616
0.000160616
0.000160616
0.000160616
0.000160617
0.000160617
0.000160617
0.000142131
0.000142126
0.000142123
0.000142121
0.000142121
0.000142121
0.000142121
0.000142122
0.000142123
0.000142123
0.000126126
0.000126121
0.000126118
0.000126116
0.000126116
0.000126116
0.000126117
0.000126118
0.000126119
0.000126119
0.000112417
0.000112413
0.00011241
0.000112409
0.000112409
0.000112409
0.00011241
0.000112411
0.000112411
0.000112411
0.000100839
0.000100835
0.000100833
0.000100832
0.000100832
0.000100832
0.000100833
0.000100834
0.000100834
0.000100834
9.12426e-05
9.12389e-05
9.12373e-05
9.12367e-05
9.12367e-05
9.12369e-05
9.12374e-05
9.1238e-05
9.12385e-05
9.12387e-05
8.34912e-05
8.34881e-05
8.34869e-05
8.34866e-05
8.34867e-05
8.34869e-05
8.34872e-05
8.34876e-05
8.34879e-05
8.34881e-05
7.74612e-05
7.74585e-05
7.74578e-05
7.74579e-05
7.7458e-05
7.74582e-05
7.74583e-05
7.74585e-05
7.74585e-05
7.74586e-05
7.30439e-05
7.30416e-05
7.30413e-05
7.30418e-05
7.30421e-05
7.30423e-05
7.30422e-05
7.3042e-05
7.30419e-05
7.30417e-05
7.01512e-05
7.01491e-05
7.01493e-05
7.01501e-05
7.01507e-05
7.01509e-05
7.01506e-05
7.01502e-05
7.01497e-05
7.01493e-05
6.87205e-05
6.87185e-05
6.8719e-05
6.87202e-05
6.87211e-05
6.87214e-05
6.87211e-05
6.87204e-05
6.87196e-05
6.87189e-05
6.87192e-05
6.87173e-05
6.87181e-05
6.87196e-05
6.87209e-05
6.87214e-05
6.87212e-05
6.87203e-05
6.87191e-05
6.8718e-05
7.01476e-05
7.01456e-05
7.01465e-05
7.01483e-05
7.01501e-05
7.0151e-05
7.01508e-05
7.01498e-05
7.01483e-05
7.01468e-05
7.30383e-05
7.3036e-05
7.30368e-05
7.3039e-05
7.30412e-05
7.30426e-05
7.30428e-05
7.30417e-05
7.30398e-05
7.30378e-05
7.74539e-05
7.74511e-05
7.74518e-05
7.74543e-05
7.7457e-05
7.7459e-05
7.74596e-05
7.74585e-05
7.74563e-05
7.74538e-05
8.34829e-05
8.34795e-05
8.34799e-05
8.34825e-05
8.34859e-05
8.34885e-05
8.34896e-05
8.34887e-05
8.34862e-05
8.34831e-05
9.12339e-05
9.12297e-05
9.12296e-05
9.12324e-05
9.12364e-05
9.12398e-05
9.12415e-05
9.12408e-05
9.12381e-05
9.12344e-05
0.000100831
0.000100826
0.000100825
0.000100828
0.000100832
0.000100837
0.000100839
0.000100839
0.000100836
0.000100832
0.00011241
0.000112404
0.000112403
0.000112406
0.000112411
0.000112416
0.000112419
0.000112419
0.000112416
0.000112411
0.000126121
0.000126114
0.000126112
0.000126114
0.00012612
0.000126126
0.00012613
0.00012613
0.000126127
0.000126122
0.00014213
0.000142122
0.000142119
0.000142121
0.000142127
0.000142133
0.000142138
0.000142139
0.000142137
0.000142131
0.00016063
0.000160621
0.000160616
0.000160618
0.000160624
0.000160631
0.000160637
0.000160639
0.000160636
0.000160631
0.000181855
0.000181844
0.000181839
0.000181839
0.000181845
0.000181853
0.00018186
0.000181863
0.000181861
0.000181855
0.000206098
0.000206086
0.000206079
0.000206079
0.000206084
0.000206092
0.0002061
0.000206104
0.000206103
0.000206098
0.000233737
0.000233725
0.000233716
0.000233714
0.000233718
0.000233727
0.000233735
0.000233741
0.000233742
0.000233737
0.000265269
0.000265255
0.000265244
0.00026524
0.000265243
0.000265252
0.000265261
0.000265269
0.000265272
0.000265268
0.00030135
0.000301335
0.000301322
0.000301316
0.000301317
0.000301324
0.000301335
0.000301345
0.00030135
0.000301349
0.000342863
0.000342847
0.000342831
0.000342822
0.00034282
0.000342827
0.000342839
0.000342851
0.00034286
0.000342861
0.000391006
0.000390989
0.000390971
0.000390957
0.000390953
0.000390958
0.000390971
0.000390986
0.000390999
0.000391003
0.000447438
0.00044742
0.000447398
0.00044738
0.000447371
0.000447374
0.000447388
0.000447407
0.000447424
0.000447433
0.000514494
0.000514475
0.000514449
0.000514425
0.000514411
0.000514412
0.000514427
0.00051445
0.000514473
0.000514487
0.000595561
0.000595542
0.000595512
0.000595482
0.000595461
0.000595458
0.000595474
0.000595502
0.000595532
0.000595552
0.000695716
0.000695697
0.000695662
0.000695624
0.000695596
0.000695589
0.000695605
0.000695638
0.000695675
0.000695703
0.000822896
0.000822877
0.000822838
0.000822791
0.000822754
0.00082274
0.000822756
0.000822794
0.000822841
0.000822878
0.000990201
0.000990182
0.000990138
0.000990081
0.000990032
0.000990011
0.000990025
0.000990069
0.000990127
0.000990175
0.0012208
0.00122078
0.00122073
0.00122066
0.0012206
0.00122057
0.00122058
0.00122063
0.0012207
0.00122076
0.00155961
0.0015596
0.00155954
0.00155946
0.00155937
0.00155933
0.00155934
0.00155939
0.00155948
0.00155956
0.00210541
0.00210539
0.00210533
0.00210522
0.00210511
0.00210504
0.00210504
0.00210511
0.00210522
0.00210533
0.00311864
0.00311863
0.00311853
0.00311838
0.00311821
0.00311811
0.0031181
0.0031182
0.00311836
0.00311852
0.00550941
0.0055094
0.00550922
0.00550891
0.00550857
0.00550835
0.00550834
0.00550853
0.00550884
0.00550916
0.0140406
0.0140408
0.0140403
0.0140392
0.0140379
0.0140369
0.0140366
0.0140371
0.0140382
0.0140395
0.0140372
0.0140375
0.0140378
0.0140383
0.0140386
0.0140386
0.0140385
0.0140381
0.0140377
0.0140374
0.00550844
0.00550851
0.00550861
0.00550871
0.00550878
0.00550879
0.00550873
0.00550862
0.00550851
0.00550844
0.00311814
0.00311817
0.00311822
0.00311828
0.00311831
0.00311831
0.00311828
0.00311822
0.00311816
0.00311813
0.00210506
0.00210508
0.00210512
0.00210515
0.00210517
0.00210517
0.00210514
0.0021051
0.00210506
0.00210504
0.00155934
0.00155935
0.00155938
0.00155941
0.00155942
0.00155941
0.00155939
0.00155936
0.00155933
0.00155932
0.00122057
0.00122058
0.00122061
0.00122063
0.00122064
0.00122063
0.00122061
0.00122058
0.00122056
0.00122055
0.000990008
0.000990019
0.000990038
0.000990053
0.000990057
0.000990048
0.000990029
0.000990008
0.000989993
0.00098999
0.000822733
0.000822741
0.000822756
0.000822768
0.000822769
0.00082276
0.000822744
0.000822727
0.000822716
0.000822714
0.000695578
0.000695584
0.000695596
0.000695604
0.000695604
0.000695596
0.000695582
0.000695568
0.000695559
0.000695559
0.000595445
0.000595449
0.000595457
0.000595463
0.000595462
0.000595455
0.000595443
0.000595432
0.000595426
0.000595426
0.000514397
0.000514399
0.000514405
0.000514408
0.000514407
0.000514401
0.000514391
0.000514383
0.000514378
0.000514379
0.000447358
0.000447358
0.000447362
0.000447364
0.000447362
0.000447357
0.000447349
0.000447343
0.000447339
0.00044734
0.000390942
0.000390941
0.000390942
0.000390943
0.000390941
0.000390937
0.000390931
0.000390926
0.000390924
0.000390925
0.000342811
0.000342809
0.000342809
0.000342809
0.000342807
0.000342804
0.000342799
0.000342796
0.000342794
0.000342795
0.00030131
0.000301306
0.000301305
0.000301304
0.000301303
0.0003013
0.000301297
0.000301295
0.000301294
0.000301294
0.000265238
0.000265234
0.000265232
0.000265231
0.00026523
0.000265228
0.000265226
0.000265224
0.000265224
0.000265224
0.000233715
0.00023371
0.000233708
0.000233706
0.000233705
0.000233704
0.000233703
0.000233702
0.000233702
0.000233702
0.000206083
0.000206078
0.000206075
0.000206073
0.000206072
0.000206071
0.000206071
0.000206071
0.000206071
0.000206071
0.000181846
0.000181841
0.000181838
0.000181836
0.000181835
0.000181835
0.000181835
0.000181835
0.000181835
0.000181836
0.000160627
0.000160621
0.000160618
0.000160616
0.000160616
0.000160616
0.000160616
0.000160617
0.000160617
0.000160617
0.000142131
0.000142126
0.000142123
0.000142121
0.000142121
0.000142121
0.000142121
0.000142122
0.000142123
0.000142123
0.000126125
0.00012612
0.000126118
0.000126116
0.000126116
0.000126116
0.000126117
0.000126118
0.000126118
0.000126119
0.000112417
0.000112412
0.00011241
0.000112409
0.000112408
0.000112409
0.000112409
0.00011241
0.000112411
0.000112411
0.000100839
0.000100835
0.000100833
0.000100832
0.000100832
0.000100832
0.000100832
0.000100833
0.000100834
0.000100834
9.12422e-05
9.12385e-05
9.12369e-05
9.12363e-05
9.12362e-05
9.12365e-05
9.1237e-05
9.12376e-05
9.12381e-05
9.12383e-05
8.34908e-05
8.34876e-05
8.34864e-05
8.34862e-05
8.34862e-05
8.34864e-05
8.34867e-05
8.34871e-05
8.34874e-05
8.34876e-05
7.74607e-05
7.74579e-05
7.74572e-05
7.74573e-05
7.74575e-05
7.74576e-05
7.74577e-05
7.74579e-05
7.7458e-05
7.7458e-05
7.30433e-05
7.3041e-05
7.30407e-05
7.30411e-05
7.30415e-05
7.30416e-05
7.30416e-05
7.30414e-05
7.30412e-05
7.30411e-05
7.01505e-05
7.01484e-05
7.01486e-05
7.01494e-05
7.015e-05
7.01502e-05
7.015e-05
7.01495e-05
7.0149e-05
7.01486e-05
6.87198e-05
6.87178e-05
6.87183e-05
6.87195e-05
6.87204e-05
6.87207e-05
6.87204e-05
6.87197e-05
6.87189e-05
6.87182e-05
6.87185e-05
6.87166e-05
6.87174e-05
6.87189e-05
6.87202e-05
6.87207e-05
6.87205e-05
6.87196e-05
6.87184e-05
6.87173e-05
7.01469e-05
7.01449e-05
7.01458e-05
7.01476e-05
7.01494e-05
7.01503e-05
7.01502e-05
7.01491e-05
7.01476e-05
7.01461e-05
7.30376e-05
7.30353e-05
7.30361e-05
7.30383e-05
7.30406e-05
7.3042e-05
7.30421e-05
7.3041e-05
7.30391e-05
7.30371e-05
7.74533e-05
7.74505e-05
7.74512e-05
7.74536e-05
7.74564e-05
7.74584e-05
7.7459e-05
7.7458e-05
7.74558e-05
7.74532e-05
8.34823e-05
8.3479e-05
8.34793e-05
8.3482e-05
8.34853e-05
8.3488e-05
8.34891e-05
8.34882e-05
8.34857e-05
8.34826e-05
9.12334e-05
9.12293e-05
9.12292e-05
9.12319e-05
9.12359e-05
9.12393e-05
9.12411e-05
9.12404e-05
9.12377e-05
9.1234e-05
0.000100831
0.000100825
0.000100825
0.000100828
0.000100832
0.000100836
0.000100839
0.000100839
0.000100836
0.000100831
0.00011241
0.000112404
0.000112403
0.000112405
0.00011241
0.000112415
0.000112419
0.000112419
0.000112416
0.000112411
0.000126121
0.000126114
0.000126112
0.000126114
0.00012612
0.000126126
0.00012613
0.00012613
0.000126127
0.000126122
0.00014213
0.000142122
0.000142119
0.000142121
0.000142126
0.000142133
0.000142138
0.000142139
0.000142137
0.000142131
0.00016063
0.000160621
0.000160616
0.000160618
0.000160624
0.000160631
0.000160637
0.000160639
0.000160637
0.000160631
0.000181855
0.000181844
0.000181839
0.000181839
0.000181845
0.000181853
0.00018186
0.000181863
0.000181861
0.000181855
0.000206098
0.000206086
0.000206079
0.000206079
0.000206084
0.000206092
0.0002061
0.000206104
0.000206104
0.000206098
0.000233738
0.000233725
0.000233716
0.000233714
0.000233719
0.000233727
0.000233736
0.000233741
0.000233742
0.000233738
0.000265269
0.000265255
0.000265245
0.000265241
0.000265244
0.000265252
0.000265262
0.000265269
0.000265272
0.000265269
0.00030135
0.000301336
0.000301323
0.000301316
0.000301317
0.000301325
0.000301336
0.000301346
0.000301351
0.000301349
0.000342863
0.000342848
0.000342832
0.000342822
0.000342821
0.000342827
0.000342839
0.000342852
0.00034286
0.000342862
0.000391007
0.00039099
0.000390972
0.000390958
0.000390953
0.000390958
0.000390971
0.000390987
0.000391
0.000391004
0.000447439
0.000447421
0.000447399
0.000447381
0.000447371
0.000447375
0.000447389
0.000447408
0.000447425
0.000447434
0.000514495
0.000514476
0.000514451
0.000514427
0.000514412
0.000514413
0.000514428
0.000514451
0.000514474
0.000514489
0.000595563
0.000595544
0.000595514
0.000595483
0.000595463
0.000595459
0.000595475
0.000595503
0.000595533
0.000595554
0.000695718
0.000695699
0.000695664
0.000695626
0.000695598
0.00069559
0.000695606
0.000695639
0.000695677
0.000695705
0.000822898
0.000822879
0.00082284
0.000822793
0.000822756
0.000822742
0.000822757
0.000822796
0.000822843
0.00082288
0.000990203
0.000990184
0.000990141
0.000990084
0.000990035
0.000990013
0.000990027
0.000990071
0.000990129
0.000990177
0.0012208
0.00122078
0.00122074
0.00122067
0.0012206
0.00122057
0.00122058
0.00122063
0.0012207
0.00122077
0.00155961
0.0015596
0.00155954
0.00155946
0.00155938
0.00155933
0.00155934
0.0015594
0.00155948
0.00155956
0.00210541
0.0021054
0.00210533
0.00210522
0.00210511
0.00210504
0.00210505
0.00210511
0.00210522
0.00210533
0.00311865
0.00311863
0.00311854
0.00311838
0.00311822
0.00311811
0.00311811
0.0031182
0.00311836
0.00311852
0.00550941
0.00550941
0.00550923
0.00550892
0.00550858
0.00550835
0.00550835
0.00550854
0.00550884
0.00550916
0.0140406
0.0140409
0.0140403
0.0140392
0.0140379
0.0140369
0.0140366
0.0140371
0.0140382
0.0140395
0.0140372
0.0140375
0.0140378
0.0140383
0.0140386
0.0140386
0.0140385
0.0140381
0.0140377
0.0140374
0.00550844
0.0055085
0.00550861
0.00550871
0.00550878
0.00550879
0.00550873
0.00550862
0.00550851
0.00550844
0.00311814
0.00311817
0.00311822
0.00311828
0.00311831
0.00311831
0.00311828
0.00311822
0.00311816
0.00311813
0.00210506
0.00210508
0.00210512
0.00210515
0.00210517
0.00210517
0.00210514
0.0021051
0.00210506
0.00210504
0.00155934
0.00155935
0.00155938
0.00155941
0.00155942
0.00155942
0.00155939
0.00155936
0.00155933
0.00155932
0.00122057
0.00122058
0.00122061
0.00122063
0.00122064
0.00122063
0.00122061
0.00122058
0.00122056
0.00122055
0.000990008
0.000990018
0.000990038
0.000990053
0.000990057
0.000990048
0.000990029
0.000990007
0.000989993
0.000989989
0.000822733
0.000822741
0.000822756
0.000822768
0.000822769
0.00082276
0.000822744
0.000822727
0.000822715
0.000822714
0.000695578
0.000695584
0.000695596
0.000695604
0.000695604
0.000695596
0.000695582
0.000695568
0.000695559
0.000695559
0.000595445
0.000595449
0.000595457
0.000595463
0.000595463
0.000595455
0.000595443
0.000595432
0.000595426
0.000595426
0.000514397
0.000514399
0.000514405
0.000514408
0.000514407
0.000514401
0.000514391
0.000514382
0.000514378
0.000514378
0.000447358
0.000447358
0.000447362
0.000447364
0.000447362
0.000447357
0.000447349
0.000447343
0.000447339
0.00044734
0.000390942
0.00039094
0.000390942
0.000390943
0.000390941
0.000390937
0.000390931
0.000390926
0.000390924
0.000390925
0.000342811
0.000342808
0.000342809
0.000342809
0.000342807
0.000342804
0.000342799
0.000342796
0.000342794
0.000342795
0.000301309
0.000301306
0.000301305
0.000301304
0.000301303
0.0003013
0.000301297
0.000301295
0.000301294
0.000301294
0.000265238
0.000265234
0.000265232
0.000265231
0.000265229
0.000265228
0.000265226
0.000265224
0.000265223
0.000265224
0.000233715
0.00023371
0.000233708
0.000233706
0.000233705
0.000233704
0.000233703
0.000233702
0.000233702
0.000233702
0.000206083
0.000206078
0.000206075
0.000206073
0.000206072
0.000206071
0.000206071
0.000206071
0.000206071
0.000206071
0.000181846
0.000181841
0.000181837
0.000181836
0.000181835
0.000181835
0.000181835
0.000181835
0.000181835
0.000181836
0.000160627
0.000160621
0.000160618
0.000160616
0.000160616
0.000160616
0.000160616
0.000160616
0.000160617
0.000160617
0.000142131
0.000142126
0.000142123
0.000142121
0.000142121
0.000142121
0.000142121
0.000142122
0.000142123
0.000142123
0.000126125
0.00012612
0.000126118
0.000126116
0.000126116
0.000126116
0.000126117
0.000126118
0.000126118
0.000126119
0.000112417
0.000112412
0.00011241
0.000112409
0.000112408
0.000112409
0.000112409
0.00011241
0.000112411
0.000112411
0.000100839
0.000100835
0.000100833
0.000100832
0.000100831
0.000100832
0.000100832
0.000100833
0.000100834
0.000100834
9.12421e-05
9.12385e-05
9.12369e-05
9.12363e-05
9.12362e-05
9.12365e-05
9.1237e-05
9.12376e-05
9.12381e-05
9.12383e-05
8.34907e-05
8.34876e-05
8.34864e-05
8.34861e-05
8.34862e-05
8.34864e-05
8.34867e-05
8.34871e-05
8.34874e-05
8.34876e-05
7.74607e-05
7.74579e-05
7.74572e-05
7.74573e-05
7.74574e-05
7.74576e-05
7.74577e-05
7.74579e-05
7.7458e-05
7.7458e-05
7.30433e-05
7.30409e-05
7.30407e-05
7.30411e-05
7.30415e-05
7.30416e-05
7.30416e-05
7.30414e-05
7.30412e-05
7.30411e-05
7.01505e-05
7.01484e-05
7.01486e-05
7.01494e-05
7.015e-05
7.01502e-05
7.015e-05
7.01495e-05
7.0149e-05
7.01486e-05
6.87198e-05
6.87178e-05
6.87183e-05
6.87195e-05
6.87204e-05
6.87207e-05
6.87204e-05
6.87197e-05
6.87189e-05
6.87182e-05
6.87185e-05
6.87166e-05
6.87173e-05
6.87189e-05
6.87202e-05
6.87207e-05
6.87205e-05
6.87196e-05
6.87184e-05
6.87173e-05
7.01469e-05
7.01449e-05
7.01457e-05
7.01476e-05
7.01494e-05
7.01503e-05
7.01502e-05
7.01491e-05
7.01476e-05
7.01461e-05
7.30376e-05
7.30353e-05
7.30361e-05
7.30383e-05
7.30405e-05
7.30419e-05
7.30421e-05
7.3041e-05
7.30391e-05
7.30371e-05
7.74533e-05
7.74505e-05
7.74511e-05
7.74536e-05
7.74564e-05
7.74584e-05
7.74589e-05
7.74579e-05
7.74557e-05
7.74532e-05
8.34823e-05
8.34789e-05
8.34792e-05
8.34819e-05
8.34853e-05
8.3488e-05
8.3489e-05
8.34882e-05
8.34857e-05
8.34826e-05
9.12334e-05
9.12292e-05
9.12291e-05
9.12319e-05
9.12358e-05
9.12393e-05
9.1241e-05
9.12404e-05
9.12377e-05
9.12339e-05
0.00010083
0.000100825
0.000100825
0.000100827
0.000100832
0.000100836
0.000100839
0.000100838
0.000100836
0.000100831
0.00011241
0.000112404
0.000112402
0.000112405
0.00011241
0.000112415
0.000112419
0.000112419
0.000112416
0.000112411
0.000126121
0.000126114
0.000126112
0.000126114
0.000126119
0.000126125
0.000126129
0.00012613
0.000126127
0.000126122
0.00014213
0.000142122
0.000142118
0.000142121
0.000142126
0.000142133
0.000142138
0.000142139
0.000142136
0.000142131
0.00016063
0.00016062
0.000160616
0.000160618
0.000160624
0.000160631
0.000160637
0.000160639
0.000160636
0.000160631
0.000181855
0.000181844
0.000181839
0.000181839
0.000181845
0.000181853
0.00018186
0.000181863
0.000181861
0.000181855
0.000206098
0.000206086
0.000206079
0.000206079
0.000206084
0.000206092
0.0002061
0.000206104
0.000206104
0.000206098
0.000233738
0.000233725
0.000233716
0.000233714
0.000233718
0.000233727
0.000233735
0.000233741
0.000233742
0.000233737
0.000265269
0.000265255
0.000265245
0.000265241
0.000265244
0.000265252
0.000265262
0.000265269
0.000265272
0.000265269
0.00030135
0.000301336
0.000301323
0.000301316
0.000301317
0.000301325
0.000301335
0.000301345
0.000301351
0.000301349
0.000342863
0.000342847
0.000342832
0.000342822
0.000342821
0.000342827
0.000342839
0.000342852
0.00034286
0.000342862
0.000391007
0.00039099
0.000390972
0.000390958
0.000390953
0.000390958
0.000390971
0.000390987
0.000391
0.000391004
0.000447439
0.000447421
0.000447399
0.000447381
0.000447371
0.000447375
0.000447389
0.000447408
0.000447425
0.000447434
0.000514495
0.000514476
0.000514451
0.000514427
0.000514412
0.000514413
0.000514428
0.000514451
0.000514474
0.000514489
0.000595563
0.000595544
0.000595514
0.000595483
0.000595463
0.000595459
0.000595475
0.000595503
0.000595533
0.000595554
0.000695718
0.000695699
0.000695665
0.000695626
0.000695598
0.00069559
0.000695606
0.000695639
0.000695677
0.000695705
0.000822899
0.000822879
0.00082284
0.000822794
0.000822756
0.000822742
0.000822757
0.000822796
0.000822843
0.00082288
0.000990203
0.000990184
0.000990141
0.000990084
0.000990035
0.000990013
0.000990027
0.000990071
0.000990129
0.000990178
0.0012208
0.00122078
0.00122074
0.00122067
0.0012206
0.00122057
0.00122058
0.00122063
0.0012207
0.00122077
0.00155961
0.0015596
0.00155954
0.00155946
0.00155938
0.00155933
0.00155934
0.0015594
0.00155948
0.00155956
0.00210541
0.0021054
0.00210533
0.00210522
0.00210511
0.00210504
0.00210505
0.00210511
0.00210522
0.00210533
0.00311865
0.00311863
0.00311854
0.00311838
0.00311822
0.00311811
0.00311811
0.0031182
0.00311836
0.00311852
0.00550941
0.00550941
0.00550923
0.00550892
0.00550858
0.00550835
0.00550835
0.00550854
0.00550884
0.00550916
0.0140406
0.0140409
0.0140403
0.0140392
0.0140379
0.0140369
0.0140366
0.0140371
0.0140382
0.0140395
0.0140372
0.0140375
0.0140378
0.0140383
0.0140386
0.0140386
0.0140385
0.0140381
0.0140377
0.0140374
0.00550844
0.0055085
0.00550861
0.00550871
0.00550878
0.00550879
0.00550873
0.00550862
0.00550851
0.00550844
0.00311814
0.00311817
0.00311822
0.00311828
0.00311831
0.00311831
0.00311828
0.00311822
0.00311816
0.00311813
0.00210506
0.00210508
0.00210511
0.00210515
0.00210517
0.00210517
0.00210514
0.0021051
0.00210506
0.00210504
0.00155934
0.00155935
0.00155938
0.00155941
0.00155942
0.00155941
0.00155939
0.00155936
0.00155933
0.00155932
0.00122057
0.00122058
0.00122061
0.00122063
0.00122064
0.00122063
0.0012206
0.00122058
0.00122056
0.00122055
0.000990007
0.000990018
0.000990037
0.000990053
0.000990057
0.000990047
0.000990028
0.000990007
0.000989992
0.000989989
0.000822733
0.000822741
0.000822756
0.000822767
0.000822769
0.00082276
0.000822743
0.000822726
0.000822715
0.000822713
0.000695578
0.000695584
0.000695595
0.000695604
0.000695604
0.000695595
0.000695581
0.000695567
0.000695559
0.000695558
0.000595445
0.000595449
0.000595457
0.000595463
0.000595462
0.000595455
0.000595443
0.000595432
0.000595425