/*--------------------------------*- C++ -*----------------------------------*\
| =========                 |                                                 |
| \\      /  F ield         | OpenFOAM: The Open Source CFD Toolbox           |
|  \\    /   O peration     | Version:  2.3.0                                 |
|   \\  /    A nd           | Web:      www.OpenFOAM.org                      |
|    \\/     M anipulation  |                                                 |
\*---------------------------------------------------------------------------*/
FoamFile
{
    version     2.0;
    format      ascii;
    class       volScalarField;
    location    "600";
    object      p;
}
// * * * * * * * * * * * * * * * * * * * * * * * * * * * * * * * * * * * * * //

dimensions      [0 2 -2 0 0 0 0];

internalField   nonuniform List<scalar> 
6000
(
1.37222e-07
1.4869e-08
-1.00929e-07
-1.66652e-07
-1.55972e-07
-7.62973e-08
4.51702e-08
1.57037e-07
2.19515e-07
2.16061e-07
1.36945e-07
1.46508e-08
-1.00986e-07
-1.66538e-07
-1.55741e-07
-7.60302e-08
4.53935e-08
1.57106e-07
2.19409e-07
2.15823e-07
1.36745e-07
1.44004e-08
-1.01173e-07
-1.66595e-07
-1.55666e-07
-7.58576e-08
4.5621e-08
1.57323e-07
2.19486e-07
2.1574e-07
1.36597e-07
1.41388e-08
-1.01428e-07
-1.66754e-07
-1.55687e-07
-7.57426e-08
4.58581e-08
1.57612e-07
2.1967e-07
2.15758e-07
1.3646e-07
1.3864e-08
-1.01713e-07
-1.6695e-07
-1.55738e-07
-7.56392e-08
4.61084e-08
1.5793e-07
2.19893e-07
2.15807e-07
1.3633e-07
1.35785e-08
-1.02019e-07
-1.67172e-07
-1.55809e-07
-7.55421e-08
4.63679e-08
1.5827e-07
2.20142e-07
2.15878e-07
1.36208e-07
1.32847e-08
-1.02347e-07
-1.67421e-07
-1.55902e-07
-7.54538e-08
4.66344e-08
1.5863e-07
2.20417e-07
2.15971e-07
1.36094e-07
1.29831e-08
-1.02694e-07
-1.67694e-07
-1.56014e-07
-7.53729e-08
4.6908e-08
1.5901e-07
2.20718e-07
2.16086e-07
1.35985e-07
1.26731e-08
-1.0306e-07
-1.6799e-07
-1.56144e-07
-7.52976e-08
4.71894e-08
1.59408e-07
2.2104e-07
2.16218e-07
1.35882e-07
1.23548e-08
-1.03444e-07
-1.68307e-07
-1.56289e-07
-7.52269e-08
4.74788e-08
1.59822e-07
2.21383e-07
2.16368e-07
1.35783e-07
1.2028e-08
-1.03845e-07
-1.68645e-07
-1.5645e-07
-7.51602e-08
4.77762e-08
1.60254e-07
2.21747e-07
2.16534e-07
1.35688e-07
1.16928e-08
-1.04263e-07
-1.69002e-07
-1.56625e-07
-7.50969e-08
4.80817e-08
1.60702e-07
2.22129e-07
2.16715e-07
1.35597e-07
1.13494e-08
-1.04698e-07
-1.6938e-07
-1.56815e-07
-7.50372e-08
4.83951e-08
1.61166e-07
2.22531e-07
2.16911e-07
1.3551e-07
1.09977e-08
-1.0515e-07
-1.69776e-07
-1.57018e-07
-7.49806e-08
4.87165e-08
1.61646e-07
2.22951e-07
2.17123e-07
1.35427e-07
1.06377e-08
-1.05617e-07
-1.70191e-07
-1.57234e-07
-7.49268e-08
4.90459e-08
1.62141e-07
2.2339e-07
2.17348e-07
1.35346e-07
1.02695e-08
-1.06101e-07
-1.70624e-07
-1.57464e-07
-7.48757e-08
4.93833e-08
1.62652e-07
2.23846e-07
2.17587e-07
1.3527e-07
9.89348e-09
-1.06601e-07
-1.71076e-07
-1.57706e-07
-7.48274e-08
4.97282e-08
1.63178e-07
2.2432e-07
2.17841e-07
1.35196e-07
9.5096e-09
-1.07116e-07
-1.71546e-07
-1.57961e-07
-7.47817e-08
5.00806e-08
1.63718e-07
2.24811e-07
2.18108e-07
1.35125e-07
9.11775e-09
-1.07647e-07
-1.72032e-07
-1.58227e-07
-7.47382e-08
5.04408e-08
1.64272e-07
2.25318e-07
2.18388e-07
1.35058e-07
8.7183e-09
-1.08192e-07
-1.72536e-07
-1.58506e-07
-7.46971e-08
5.08082e-08
1.64841e-07
2.25842e-07
2.18681e-07
1.34993e-07
8.31169e-09
-1.08752e-07
-1.73057e-07
-1.58796e-07
-7.46587e-08
5.11826e-08
1.65423e-07
2.26382e-07
2.18987e-07
1.34933e-07
7.89814e-09
-1.09326e-07
-1.73594e-07
-1.59098e-07
-7.46229e-08
5.15637e-08
1.66019e-07
2.26938e-07
2.19306e-07
1.34875e-07
7.47805e-09
-1.09914e-07
-1.74147e-07
-1.59412e-07
-7.459e-08
5.1951e-08
1.66627e-07
2.2751e-07
2.19638e-07
1.34822e-07
7.05174e-09
-1.10516e-07
-1.74717e-07
-1.59737e-07
-7.45601e-08
5.23443e-08
1.67248e-07
2.28096e-07
2.19982e-07
1.34772e-07
6.61934e-09
-1.1113e-07
-1.75301e-07
-1.60073e-07
-7.45331e-08
5.27435e-08
1.67881e-07
2.28698e-07
2.20339e-07
1.34726e-07
6.18139e-09
-1.11757e-07
-1.75901e-07
-1.60421e-07
-7.45092e-08
5.3148e-08
1.68526e-07
2.29313e-07
2.20708e-07
1.34685e-07
5.73874e-09
-1.12396e-07
-1.76516e-07
-1.60779e-07
-7.44892e-08
5.35569e-08
1.69181e-07
2.29943e-07
2.2109e-07
1.34649e-07
5.29159e-09
-1.13047e-07
-1.77146e-07
-1.61149e-07
-7.44729e-08
5.39702e-08
1.69847e-07
2.30587e-07
2.21483e-07
1.34616e-07
4.83955e-09
-1.13709e-07
-1.7779e-07
-1.61529e-07
-7.44599e-08
5.43882e-08
1.70524e-07
2.31244e-07
2.21889e-07
1.34589e-07
4.38344e-09
-1.14383e-07
-1.78448e-07
-1.6192e-07
-7.44507e-08
5.481e-08
1.7121e-07
2.31914e-07
2.22307e-07
1.34567e-07
3.92536e-09
-1.15066e-07
-1.79119e-07
-1.62323e-07
-7.44471e-08
5.52337e-08
1.71905e-07
2.32597e-07
2.22737e-07
1.34553e-07
3.46589e-09
-1.15757e-07
-1.79803e-07
-1.62736e-07
-7.44491e-08
5.56587e-08
1.72608e-07
2.33292e-07
2.2318e-07
1.34544e-07
3.00409e-09
-1.16458e-07
-1.80499e-07
-1.6316e-07
-7.44557e-08
5.60859e-08
1.73318e-07
2.33998e-07
2.23634e-07
1.3454e-07
2.54046e-09
-1.17167e-07
-1.81208e-07
-1.63594e-07
-7.44672e-08
5.65148e-08
1.74036e-07
2.34716e-07
2.24099e-07
1.34544e-07
2.07674e-09
-1.17883e-07
-1.81929e-07
-1.64039e-07
-7.44849e-08
5.69437e-08
1.7476e-07
2.35444e-07
2.24576e-07
1.34556e-07
1.61383e-09
-1.18606e-07
-1.8266e-07
-1.64494e-07
-7.4509e-08
5.73717e-08
1.75489e-07
2.36182e-07
2.25065e-07
1.34574e-07
1.15176e-09
-1.19334e-07
-1.83401e-07
-1.64958e-07
-7.45393e-08
5.77989e-08
1.76223e-07
2.36929e-07
2.25565e-07
1.346e-07
6.90933e-10
-1.20067e-07
-1.84151e-07
-1.65432e-07
-7.45758e-08
5.82248e-08
1.7696e-07
2.37685e-07
2.26075e-07
1.34633e-07
2.32251e-10
-1.20805e-07
-1.84911e-07
-1.65915e-07
-7.46188e-08
5.86486e-08
1.77701e-07
2.38449e-07
2.26595e-07
1.34673e-07
-2.23811e-10
-1.21545e-07
-1.85678e-07
-1.66407e-07
-7.46683e-08
5.90698e-08
1.78444e-07
2.39219e-07
2.27124e-07
1.34721e-07
-6.76843e-10
-1.22289e-07
-1.86452e-07
-1.66906e-07
-7.47242e-08
5.9488e-08
1.79188e-07
2.39996e-07
2.27663e-07
1.34777e-07
-1.12623e-09
-1.23033e-07
-1.87233e-07
-1.67413e-07
-7.47864e-08
5.99026e-08
1.79933e-07
2.40777e-07
2.2821e-07
1.34839e-07
-1.57201e-09
-1.23779e-07
-1.88018e-07
-1.67927e-07
-7.48544e-08
6.03136e-08
1.80678e-07
2.41563e-07
2.28764e-07
1.34908e-07
-2.01389e-09
-1.24525e-07
-1.88808e-07
-1.68446e-07
-7.4928e-08
6.07209e-08
1.81422e-07
2.42353e-07
2.29325e-07
1.34984e-07
-2.45031e-09
-1.2527e-07
-1.89601e-07
-1.6897e-07
-7.5008e-08
6.11227e-08
1.82164e-07
2.43144e-07
2.29892e-07
1.35068e-07
-2.8799e-09
-1.26012e-07
-1.90396e-07
-1.695e-07
-7.50949e-08
6.15178e-08
1.82902e-07
2.43937e-07
2.30466e-07
1.3516e-07
-3.30249e-09
-1.26751e-07
-1.91192e-07
-1.70034e-07
-7.51883e-08
6.19059e-08
1.83636e-07
2.44729e-07
2.31044e-07
1.35259e-07
-3.71776e-09
-1.27485e-07
-1.91988e-07
-1.70572e-07
-7.52879e-08
6.22869e-08
1.84364e-07
2.45521e-07
2.31627e-07
1.35366e-07
-4.12444e-09
-1.28213e-07
-1.92783e-07
-1.71113e-07
-7.53944e-08
6.26595e-08
1.85085e-07
2.46311e-07
2.32214e-07
1.35481e-07
-4.52202e-09
-1.28934e-07
-1.93577e-07
-1.71657e-07
-7.55079e-08
6.30231e-08
1.85799e-07
2.47098e-07
2.32805e-07
1.35603e-07
-4.91108e-09
-1.29649e-07
-1.94367e-07
-1.72202e-07
-7.56269e-08
6.33784e-08
1.86505e-07
2.47881e-07
2.33397e-07
1.3573e-07
-5.29229e-09
-1.30357e-07
-1.95154e-07
-1.72747e-07
-7.57503e-08
6.37261e-08
1.87203e-07
2.48659e-07
2.33991e-07
1.35861e-07
-5.66668e-09
-1.31058e-07
-1.95936e-07
-1.73291e-07
-7.58763e-08
6.40672e-08
1.87893e-07
2.49432e-07
2.34583e-07
1.35991e-07
-6.03681e-09
-1.31752e-07
-1.96711e-07
-1.73829e-07
-7.60009e-08
6.44041e-08
1.88576e-07
2.50197e-07
2.3517e-07
1.36114e-07
-6.40782e-09
-1.3244e-07
-1.97475e-07
-1.74355e-07
-7.61172e-08
6.47417e-08
1.89251e-07
2.5095e-07
2.35746e-07
1.36224e-07
-6.78326e-09
-1.33122e-07
-1.98223e-07
-1.74862e-07
-7.62196e-08
6.50831e-08
1.89919e-07
2.51688e-07
2.36304e-07
1.36325e-07
-7.15778e-09
-1.33792e-07
-1.98954e-07
-1.75351e-07
-7.63102e-08
6.54239e-08
1.90574e-07
2.52407e-07
2.36844e-07
1.36384e-07
-7.54444e-09
-1.34446e-07
-1.99644e-07
-1.75788e-07
-7.63591e-08
6.57781e-08
1.9121e-07
2.53087e-07
2.37333e-07
1.36192e-07
-8.07142e-09
-1.35083e-07
-2.00164e-07
-1.75978e-07
-7.61774e-08
6.62621e-08
1.91837e-07
2.53622e-07
2.37574e-07
1.35527e-07
-8.85861e-09
-1.35615e-07
-2.00295e-07
-1.75688e-07
-7.55792e-08
6.69653e-08
1.92412e-07
2.53819e-07
2.37321e-07
1.37497e-07
1.53101e-08
-1.00386e-07
-1.65464e-07
-1.55754e-07
-7.81119e-08
4.4222e-08
1.58094e-07
2.19426e-07
2.15176e-07
1.37205e-07
1.50792e-08
-1.00452e-07
-1.65368e-07
-1.55511e-07
-7.78031e-08
4.44392e-08
1.58142e-07
2.19328e-07
2.1495e-07
1.36996e-07
1.48252e-08
-1.00646e-07
-1.6545e-07
-1.55444e-07
-7.75934e-08
4.46899e-08
1.58332e-07
2.19412e-07
2.14888e-07
1.36843e-07
1.45605e-08
-1.00906e-07
-1.65637e-07
-1.55483e-07
-7.74443e-08
4.49522e-08
1.58593e-07
2.196e-07
2.14929e-07
1.36702e-07
1.4283e-08
-1.01194e-07
-1.65862e-07
-1.55554e-07
-7.73073e-08
4.52263e-08
1.58885e-07
2.19827e-07
2.15003e-07
1.36567e-07
1.39956e-08
-1.01505e-07
-1.66113e-07
-1.55646e-07
-7.71774e-08
4.55093e-08
1.59198e-07
2.2008e-07
2.15098e-07
1.36442e-07
1.37007e-08
-1.01835e-07
-1.66391e-07
-1.5576e-07
-7.70574e-08
4.57993e-08
1.59532e-07
2.20361e-07
2.15216e-07
1.36324e-07
1.33984e-08
-1.02185e-07
-1.66693e-07
-1.55894e-07
-7.69459e-08
4.60961e-08
1.59887e-07
2.20665e-07
2.15354e-07
1.36213e-07
1.30885e-08
-1.02553e-07
-1.67018e-07
-1.56046e-07
-7.6841e-08
4.64002e-08
1.60259e-07
2.20992e-07
2.15511e-07
1.36107e-07
1.27707e-08
-1.02938e-07
-1.67363e-07
-1.56215e-07
-7.67417e-08
4.67118e-08
1.60649e-07
2.2134e-07
2.15684e-07
1.36006e-07
1.24448e-08
-1.03341e-07
-1.67729e-07
-1.56398e-07
-7.66473e-08
4.70311e-08
1.61057e-07
2.21707e-07
2.15873e-07
1.35908e-07
1.2111e-08
-1.0376e-07
-1.68114e-07
-1.56597e-07
-7.65575e-08
4.73581e-08
1.61481e-07
2.22095e-07
2.16077e-07
1.35816e-07
1.17696e-08
-1.04195e-07
-1.68518e-07
-1.56809e-07
-7.64722e-08
4.76925e-08
1.61923e-07
2.22501e-07
2.16295e-07
1.35727e-07
1.14203e-08
-1.04646e-07
-1.68942e-07
-1.57036e-07
-7.63912e-08
4.80344e-08
1.6238e-07
2.22925e-07
2.16528e-07
1.35642e-07
1.10632e-08
-1.05114e-07
-1.69383e-07
-1.57276e-07
-7.6314e-08
4.8384e-08
1.62854e-07
2.23368e-07
2.16775e-07
1.3556e-07
1.06983e-08
-1.05597e-07
-1.69843e-07
-1.5753e-07
-7.62407e-08
4.87411e-08
1.63344e-07
2.23829e-07
2.17036e-07
1.35482e-07
1.03261e-08
-1.06095e-07
-1.70321e-07
-1.57797e-07
-7.61714e-08
4.91053e-08
1.63849e-07
2.24307e-07
2.1731e-07
1.35408e-07
9.94661e-09
-1.06609e-07
-1.70816e-07
-1.58076e-07
-7.61058e-08
4.94768e-08
1.6437e-07
2.24803e-07
2.17598e-07
1.35337e-07
9.55962e-09
-1.07137e-07
-1.71328e-07
-1.58368e-07
-7.60435e-08
4.98555e-08
1.64906e-07
2.25315e-07
2.17898e-07
1.35269e-07
9.16554e-09
-1.0768e-07
-1.71857e-07
-1.58672e-07
-7.59849e-08
5.02413e-08
1.65456e-07
2.25844e-07
2.1821e-07
1.35205e-07
8.76481e-09
-1.08237e-07
-1.72402e-07
-1.58989e-07
-7.593e-08
5.06336e-08
1.66021e-07
2.26389e-07
2.18536e-07
1.35145e-07
8.35766e-09
-1.08808e-07
-1.72964e-07
-1.59317e-07
-7.58791e-08
5.10322e-08
1.666e-07
2.26949e-07
2.18874e-07
1.35089e-07
7.94448e-09
-1.09392e-07
-1.73541e-07
-1.59658e-07
-7.58322e-08
5.14367e-08
1.67192e-07
2.27526e-07
2.19224e-07
1.35036e-07
7.52559e-09
-1.09989e-07
-1.74135e-07
-1.6001e-07
-7.57894e-08
5.1847e-08
1.67798e-07
2.28117e-07
2.19586e-07
1.34988e-07
7.10115e-09
-1.10599e-07
-1.74743e-07
-1.60374e-07
-7.57507e-08
5.22627e-08
1.68416e-07
2.28723e-07
2.19961e-07
1.34944e-07
6.67167e-09
-1.11221e-07
-1.75366e-07
-1.6075e-07
-7.57164e-08
5.26835e-08
1.69047e-07
2.29344e-07
2.20347e-07
1.34904e-07
6.238e-09
-1.11854e-07
-1.76004e-07
-1.61137e-07
-7.56871e-08
5.31085e-08
1.69689e-07
2.29979e-07
2.20746e-07
1.34869e-07
5.80035e-09
-1.12499e-07
-1.76656e-07
-1.61535e-07
-7.56626e-08
5.35374e-08
1.70343e-07
2.30627e-07
2.21156e-07
1.34839e-07
5.35836e-09
-1.13154e-07
-1.77322e-07
-1.61945e-07
-7.56426e-08
5.39708e-08
1.71007e-07
2.31289e-07
2.21578e-07
1.34813e-07
4.91281e-09
-1.1382e-07
-1.78002e-07
-1.62365e-07
-7.56276e-08
5.44077e-08
1.71683e-07
2.31964e-07
2.22011e-07
1.34794e-07
4.46574e-09
-1.14495e-07
-1.78695e-07
-1.62798e-07
-7.56193e-08
5.48462e-08
1.72367e-07
2.32651e-07
2.22456e-07
1.34781e-07
4.01773e-09
-1.15179e-07
-1.794e-07
-1.63241e-07
-7.56177e-08
5.52856e-08
1.73059e-07
2.3335e-07
2.22913e-07
1.34774e-07
3.56787e-09
-1.1587e-07
-1.80117e-07
-1.63695e-07
-7.56218e-08
5.5727e-08
1.7376e-07
2.34061e-07
2.23381e-07
1.34773e-07
3.11666e-09
-1.1657e-07
-1.80846e-07
-1.6416e-07
-7.5632e-08
5.61697e-08
1.7447e-07
2.34783e-07
2.2386e-07
1.34779e-07
2.66576e-09
-1.17276e-07
-1.81586e-07
-1.64636e-07
-7.56495e-08
5.66122e-08
1.75185e-07
2.35516e-07
2.24351e-07
1.34793e-07
2.21606e-09
-1.17988e-07
-1.82336e-07
-1.65122e-07
-7.56746e-08
5.70535e-08
1.75907e-07
2.36258e-07
2.24852e-07
1.34815e-07
1.76758e-09
-1.18705e-07
-1.83096e-07
-1.65618e-07
-7.57069e-08
5.74935e-08
1.76633e-07
2.37009e-07
2.25363e-07
1.34843e-07
1.32067e-09
-1.19427e-07
-1.83866e-07
-1.66124e-07
-7.57466e-08
5.7932e-08
1.77364e-07
2.37769e-07
2.25885e-07
1.3488e-07
8.76222e-10
-1.20152e-07
-1.84643e-07
-1.66639e-07
-7.57939e-08
5.83681e-08
1.78099e-07
2.38536e-07
2.26416e-07
1.34924e-07
4.35566e-10
-1.2088e-07
-1.85428e-07
-1.67163e-07
-7.58487e-08
5.88012e-08
1.78836e-07
2.3931e-07
2.26956e-07
1.34975e-07
1.21657e-14
-1.21609e-07
-1.86219e-07
-1.67694e-07
-7.5911e-08
5.9231e-08
1.79576e-07
2.4009e-07
2.27504e-07
1.35034e-07
-4.29723e-10
-1.2234e-07
-1.87016e-07
-1.68234e-07
-7.59807e-08
5.96568e-08
1.80316e-07
2.40876e-07
2.28061e-07
1.351e-07
-8.53687e-10
-1.2307e-07
-1.87818e-07
-1.6878e-07
-7.60572e-08
6.00788e-08
1.81057e-07
2.41665e-07
2.28624e-07
1.35172e-07
-1.27246e-09
-1.23801e-07
-1.88624e-07
-1.69333e-07
-7.61404e-08
6.04967e-08
1.81797e-07
2.42458e-07
2.29194e-07
1.35252e-07
-1.68541e-09
-1.2453e-07
-1.89432e-07
-1.69891e-07
-7.6231e-08
6.09089e-08
1.82536e-07
2.43253e-07
2.2977e-07
1.3534e-07
-2.09118e-09
-1.25255e-07
-1.90242e-07
-1.70454e-07
-7.63295e-08
6.1314e-08
1.83271e-07
2.44048e-07
2.30351e-07
1.35436e-07
-2.48959e-09
-1.25977e-07
-1.91053e-07
-1.71022e-07
-7.64354e-08
6.17119e-08
1.84002e-07
2.44844e-07
2.30937e-07
1.35539e-07
-2.88032e-09
-1.26693e-07
-1.91863e-07
-1.71593e-07
-7.65484e-08
6.21024e-08
1.84728e-07
2.45638e-07
2.31526e-07
1.35649e-07
-3.26212e-09
-1.27403e-07
-1.92672e-07
-1.72168e-07
-7.66693e-08
6.2484e-08
1.85448e-07
2.46431e-07
2.3212e-07
1.35768e-07
-3.63449e-09
-1.28106e-07
-1.93478e-07
-1.72745e-07
-7.67981e-08
6.28565e-08
1.86161e-07
2.47221e-07
2.32716e-07
1.35893e-07
-3.99804e-09
-1.28801e-07
-1.94281e-07
-1.73325e-07
-7.69333e-08
6.32203e-08
1.86866e-07
2.48007e-07
2.33314e-07
1.36024e-07
-4.35345e-09
-1.29489e-07
-1.9508e-07
-1.73904e-07
-7.70738e-08
6.35761e-08
1.87564e-07
2.48788e-07
2.33913e-07
1.36158e-07
-4.70179e-09
-1.3017e-07
-1.95874e-07
-1.74482e-07
-7.72178e-08
6.39251e-08
1.88254e-07
2.49563e-07
2.34509e-07
1.36293e-07
-5.04569e-09
-1.30844e-07
-1.9666e-07
-1.75054e-07
-7.73612e-08
6.42696e-08
1.88937e-07
2.5033e-07
2.35101e-07
1.36419e-07
-5.39038e-09
-1.31511e-07
-1.97435e-07
-1.75614e-07
-7.7497e-08
6.46147e-08
1.89613e-07
2.51086e-07
2.35681e-07
1.36533e-07
-5.73948e-09
-1.32173e-07
-1.98195e-07
-1.76155e-07
-7.76194e-08
6.49635e-08
1.90283e-07
2.51826e-07
2.36243e-07
1.36637e-07
-6.08776e-09
-1.32824e-07
-1.98937e-07
-1.76678e-07
-7.77306e-08
6.53116e-08
1.9094e-07
2.52548e-07
2.36787e-07
1.36699e-07
-6.44914e-09
-1.33459e-07
-1.99639e-07
-1.77148e-07
-7.77997e-08
6.56736e-08
1.91579e-07
2.53233e-07
2.37279e-07
1.36512e-07
-6.95534e-09
-1.34081e-07
-2.00177e-07
-1.7737e-07
-7.76317e-08
6.61698e-08
1.92209e-07
2.53773e-07
2.37524e-07
1.35853e-07
-7.72982e-09
-1.3463e-07
-2.00333e-07
-1.77106e-07
-7.70329e-08
6.68939e-08
1.92799e-07
2.53976e-07
2.37275e-07
1.3828e-07
1.56691e-08
-1.00285e-07
-1.6512e-07
-1.56463e-07
-7.88625e-08
4.52446e-08
1.58123e-07
2.18221e-07
2.15204e-07
1.3798e-07
1.54314e-08
-1.00353e-07
-1.65024e-07
-1.56219e-07
-7.8555e-08
4.54619e-08
1.58188e-07
2.18142e-07
2.14966e-07
1.37766e-07
1.51742e-08
-1.00549e-07
-1.65108e-07
-1.56153e-07
-7.83467e-08
4.56908e-08
1.5839e-07
2.18251e-07
2.14899e-07
1.37611e-07
1.49066e-08
-1.00812e-07
-1.65296e-07
-1.56194e-07
-7.81993e-08
4.59297e-08
1.58659e-07
2.18468e-07
2.14939e-07
1.37468e-07
1.4626e-08
-1.01102e-07
-1.65521e-07
-1.56267e-07
-7.80645e-08
4.61809e-08
1.58957e-07
2.18724e-07
2.15011e-07
1.37333e-07
1.43357e-08
-1.01415e-07
-1.65772e-07
-1.56361e-07
-7.79374e-08
4.64411e-08
1.59277e-07
2.19006e-07
2.15106e-07
1.37207e-07
1.40382e-08
-1.01747e-07
-1.66049e-07
-1.56478e-07
-7.78205e-08
4.6708e-08
1.59617e-07
2.19314e-07
2.15223e-07
1.37089e-07
1.37335e-08
-1.02099e-07
-1.66351e-07
-1.56616e-07
-7.77127e-08
4.69818e-08
1.59977e-07
2.19647e-07
2.15361e-07
1.36979e-07
1.34211e-08
-1.02469e-07
-1.66674e-07
-1.56772e-07
-7.7612e-08
4.72634e-08
1.60356e-07
2.20002e-07
2.15517e-07
1.36874e-07
1.31011e-08
-1.02856e-07
-1.67018e-07
-1.56944e-07
-7.75175e-08
4.75527e-08
1.60752e-07
2.20377e-07
2.1569e-07
1.36774e-07
1.27731e-08
-1.0326e-07
-1.67382e-07
-1.57133e-07
-7.74283e-08
4.78502e-08
1.61165e-07
2.20771e-07
2.15879e-07
1.36679e-07
1.24372e-08
-1.0368e-07
-1.67765e-07
-1.57337e-07
-7.73443e-08
4.81558e-08
1.61595e-07
2.21185e-07
2.16083e-07
1.36589e-07
1.20938e-08
-1.04117e-07
-1.68167e-07
-1.57556e-07
-7.72654e-08
4.84693e-08
1.62042e-07
2.21617e-07
2.16302e-07
1.36503e-07
1.17427e-08
-1.0457e-07
-1.68587e-07
-1.57789e-07
-7.71912e-08
4.87908e-08
1.62506e-07
2.22068e-07
2.16536e-07
1.36422e-07
1.13838e-08
-1.05039e-07
-1.69026e-07
-1.58036e-07
-7.71215e-08
4.91206e-08
1.62985e-07
2.22536e-07
2.16783e-07
1.36345e-07
1.10172e-08
-1.05524e-07
-1.69482e-07
-1.58298e-07
-7.70561e-08
4.94583e-08
1.63481e-07
2.23022e-07
2.17045e-07
1.36272e-07
1.06435e-08
-1.06024e-07
-1.69956e-07
-1.58573e-07
-7.69953e-08
4.98038e-08
1.63992e-07
2.23524e-07
2.1732e-07
1.36203e-07
1.02624e-08
-1.06539e-07
-1.70447e-07
-1.58862e-07
-7.69388e-08
5.0157e-08
1.64519e-07
2.24044e-07
2.17608e-07
1.36137e-07
9.87403e-09
-1.07069e-07
-1.70955e-07
-1.59164e-07
-7.68862e-08
5.0518e-08
1.6506e-07
2.2458e-07
2.1791e-07
1.36076e-07
9.47862e-09
-1.07613e-07
-1.71479e-07
-1.59479e-07
-7.68377e-08
5.08866e-08
1.65617e-07
2.25131e-07
2.18224e-07
1.36019e-07
9.07665e-09
-1.08172e-07
-1.7202e-07
-1.59807e-07
-7.67936e-08
5.12623e-08
1.66187e-07
2.25699e-07
2.18551e-07
1.35966e-07
8.66835e-09
-1.08744e-07
-1.72576e-07
-1.60148e-07
-7.67539e-08
5.16448e-08
1.66772e-07
2.26282e-07
2.18891e-07
1.35918e-07
8.25411e-09
-1.0933e-07
-1.73149e-07
-1.60501e-07
-7.67188e-08
5.2034e-08
1.6737e-07
2.2688e-07
2.19244e-07
1.35874e-07
7.83424e-09
-1.09928e-07
-1.73736e-07
-1.60867e-07
-7.66883e-08
5.24293e-08
1.67982e-07
2.27492e-07
2.19608e-07
1.35835e-07
7.40888e-09
-1.1054e-07
-1.74338e-07
-1.61246e-07
-7.66624e-08
5.28308e-08
1.68606e-07
2.28119e-07
2.19985e-07
1.35801e-07
6.97857e-09
-1.11163e-07
-1.74955e-07
-1.61636e-07
-7.66413e-08
5.32378e-08
1.69242e-07
2.2876e-07
2.20375e-07
1.35772e-07
6.54412e-09
-1.11798e-07
-1.75586e-07
-1.62039e-07
-7.66256e-08
5.36497e-08
1.6989e-07
2.29415e-07
2.20776e-07
1.35748e-07
6.10575e-09
-1.12444e-07
-1.76231e-07
-1.62454e-07
-7.66153e-08
5.40662e-08
1.70549e-07
2.30083e-07
2.21189e-07
1.3573e-07
5.6631e-09
-1.13101e-07
-1.76889e-07
-1.62881e-07
-7.66099e-08
5.44877e-08
1.71219e-07
2.30763e-07
2.21614e-07
1.35717e-07
5.21699e-09
-1.13768e-07
-1.77561e-07
-1.63319e-07
-7.66099e-08
5.49133e-08
1.719e-07
2.31456e-07
2.22051e-07
1.35711e-07
4.76945e-09
-1.14444e-07
-1.78245e-07
-1.6377e-07
-7.6617e-08
5.53411e-08
1.72589e-07
2.32161e-07
2.22499e-07
1.35712e-07
4.32106e-09
-1.15129e-07
-1.78941e-07
-1.64233e-07
-7.66314e-08
5.57706e-08
1.73287e-07
2.32878e-07
2.2296e-07
1.3572e-07
3.87097e-09
-1.15821e-07
-1.79649e-07
-1.64707e-07
-7.66518e-08
5.62025e-08
1.73993e-07
2.33605e-07
2.23431e-07
1.35734e-07
3.4197e-09
-1.16522e-07
-1.80368e-07
-1.65193e-07
-7.66787e-08
5.66365e-08
1.74708e-07
2.34343e-07
2.23914e-07
1.35756e-07
2.96895e-09
-1.17229e-07
-1.81097e-07
-1.6569e-07
-7.67132e-08
5.70707e-08
1.75428e-07
2.3509e-07
2.24408e-07
1.35787e-07
2.51961e-09
-1.17942e-07
-1.81837e-07
-1.66198e-07
-7.67557e-08
5.75043e-08
1.76155e-07
2.35847e-07
2.24913e-07
1.35825e-07
2.07173e-09
-1.1866e-07
-1.82586e-07
-1.66717e-07
-7.68059e-08
5.79373e-08
1.76886e-07
2.36613e-07
2.25428e-07
1.3587e-07
1.62573e-09
-1.19382e-07
-1.83343e-07
-1.67246e-07
-7.68639e-08
5.83693e-08
1.77622e-07
2.37386e-07
2.25954e-07
1.35924e-07
1.1825e-09
-1.20108e-07
-1.84108e-07
-1.67785e-07
-7.693e-08
5.87993e-08
1.78361e-07
2.38167e-07
2.26489e-07
1.35987e-07
7.42507e-10
-1.20836e-07
-1.8488e-07
-1.68334e-07
-7.70041e-08
5.9227e-08
1.79103e-07
2.38953e-07
2.27033e-07
1.36057e-07
3.06172e-10
-1.21566e-07
-1.85659e-07
-1.68891e-07
-7.7086e-08
5.96519e-08
1.79847e-07
2.39745e-07
2.27586e-07
1.36135e-07
-1.25907e-10
-1.22297e-07
-1.86442e-07
-1.69457e-07
-7.71759e-08
6.00734e-08
1.80591e-07
2.40542e-07
2.28147e-07
1.36221e-07
-5.53753e-10
-1.23029e-07
-1.8723e-07
-1.70029e-07
-7.7273e-08
6.04916e-08
1.81337e-07
2.41342e-07
2.28714e-07
1.36314e-07
-9.77095e-10
-1.2376e-07
-1.88021e-07
-1.70609e-07
-7.73772e-08
6.09061e-08
1.82082e-07
2.42145e-07
2.29288e-07
1.36415e-07
-1.3944e-09
-1.2449e-07
-1.88815e-07
-1.71195e-07
-7.74893e-08
6.13154e-08
1.82825e-07
2.4295e-07
2.29868e-07
1.36525e-07
-1.8043e-09
-1.25216e-07
-1.8961e-07
-1.71787e-07
-7.76096e-08
6.17182e-08
1.83564e-07
2.43755e-07
2.30454e-07
1.36642e-07
-2.20667e-09
-1.25938e-07
-1.90404e-07
-1.72383e-07
-7.77379e-08
6.21143e-08
1.843e-07
2.44559e-07
2.31044e-07
1.36768e-07
-2.60119e-09
-1.26654e-07
-1.91198e-07
-1.72984e-07
-7.78737e-08
6.25034e-08
1.8503e-07
2.45362e-07
2.31638e-07
1.36901e-07
-2.98659e-09
-1.27365e-07
-1.91989e-07
-1.73589e-07
-7.80177e-08
6.28843e-08
1.85754e-07
2.46162e-07
2.32235e-07
1.37043e-07
-3.36236e-09
-1.28068e-07
-1.92778e-07
-1.74197e-07
-7.817e-08
6.32563e-08
1.86471e-07
2.46959e-07
2.32836e-07
1.37193e-07
-3.72915e-09
-1.28764e-07
-1.93563e-07
-1.74807e-07
-7.83292e-08
6.36202e-08
1.8718e-07
2.47751e-07
2.33438e-07
1.37348e-07
-4.08764e-09
-1.29452e-07
-1.94344e-07
-1.75418e-07
-7.8494e-08
6.39766e-08
1.87882e-07
2.48538e-07
2.3404e-07
1.37507e-07
-4.43893e-09
-1.30133e-07
-1.95119e-07
-1.76027e-07
-7.86625e-08
6.43265e-08
1.88577e-07
2.49319e-07
2.34641e-07
1.37666e-07
-4.78571e-09
-1.30807e-07
-1.95886e-07
-1.76631e-07
-7.88307e-08
6.46727e-08
1.89264e-07
2.50092e-07
2.35236e-07
1.37818e-07
-5.13331e-09
-1.31475e-07
-1.96642e-07
-1.77224e-07
-7.89914e-08
6.50199e-08
1.89944e-07
2.50852e-07
2.35819e-07
1.37957e-07
-5.48546e-09
-1.32138e-07
-1.97382e-07
-1.77798e-07
-7.91387e-08
6.53717e-08
1.90619e-07
2.51598e-07
2.36385e-07
1.38086e-07
-5.83683e-09
-1.3279e-07
-1.98105e-07
-1.78354e-07
-7.92747e-08
6.57234e-08
1.91282e-07
2.52324e-07
2.36933e-07
1.38174e-07
-6.20191e-09
-1.33426e-07
-1.98789e-07
-1.78857e-07
-7.93675e-08
6.60901e-08
1.91926e-07
2.53013e-07
2.37429e-07
1.38007e-07
-6.71624e-09
-1.3405e-07
-1.99314e-07
-1.79113e-07
-7.92172e-08
6.65967e-08
1.92561e-07
2.53558e-07
2.37679e-07
1.3736e-07
-7.50746e-09
-1.34607e-07
-1.99469e-07
-1.78879e-07
-7.86228e-08
6.73401e-08
1.93167e-07
2.53766e-07
2.37439e-07
1.38443e-07
1.5842e-08
-1e-07
-1.64749e-07
-1.5666e-07
-7.93658e-08
4.5038e-08
1.58199e-07
2.18171e-07
2.15083e-07
1.38142e-07
1.56038e-08
-1.00069e-07
-1.64654e-07
-1.56417e-07
-7.90573e-08
4.52562e-08
1.58264e-07
2.18092e-07
2.14844e-07
1.37928e-07
1.53464e-08
-1.00266e-07
-1.64738e-07
-1.56351e-07
-7.88482e-08
4.54854e-08
1.58466e-07
2.18202e-07
2.14777e-07
1.37772e-07
1.50788e-08
-1.00528e-07
-1.64927e-07
-1.56391e-07
-7.87e-08
4.57248e-08
1.58735e-07
2.18419e-07
2.14816e-07
1.37629e-07
1.47983e-08
-1.00818e-07
-1.65152e-07
-1.56465e-07
-7.85643e-08
4.59768e-08
1.59034e-07
2.18674e-07
2.14888e-07
1.37493e-07
1.45081e-08
-1.0113e-07
-1.65404e-07
-1.5656e-07
-7.84361e-08
4.6238e-08
1.59353e-07
2.18956e-07
2.14982e-07
1.37367e-07
1.42106e-08
-1.01463e-07
-1.65683e-07
-1.56678e-07
-7.83181e-08
4.65061e-08
1.59694e-07
2.19265e-07
2.151e-07
1.37249e-07
1.3906e-08
-1.01814e-07
-1.65985e-07
-1.56817e-07
-7.82091e-08
4.67814e-08
1.60054e-07
2.19598e-07
2.15238e-07
1.37138e-07
1.35938e-08
-1.02184e-07
-1.6631e-07
-1.56974e-07
-7.81072e-08
4.70646e-08
1.60432e-07
2.19953e-07
2.15394e-07
1.37033e-07
1.32739e-08
-1.0257e-07
-1.66655e-07
-1.57149e-07
-7.80112e-08
4.73557e-08
1.60828e-07
2.20328e-07
2.15568e-07
1.36933e-07
1.2946e-08
-1.02974e-07
-1.6702e-07
-1.57339e-07
-7.79206e-08
4.76552e-08
1.61241e-07
2.20723e-07
2.15757e-07
1.36837e-07
1.26103e-08
-1.03394e-07
-1.67405e-07
-1.57545e-07
-7.7835e-08
4.7963e-08
1.61671e-07
2.21137e-07
2.15962e-07
1.36747e-07
1.2267e-08
-1.03831e-07
-1.67809e-07
-1.57766e-07
-7.77544e-08
4.82789e-08
1.62118e-07
2.21569e-07
2.16181e-07
1.36661e-07
1.19161e-08
-1.04283e-07
-1.68231e-07
-1.58002e-07
-7.76785e-08
4.86029e-08
1.62581e-07
2.2202e-07
2.16415e-07
1.36579e-07
1.15573e-08
-1.04752e-07
-1.68671e-07
-1.58253e-07
-7.7607e-08
4.89353e-08
1.6306e-07
2.22488e-07
2.16664e-07
1.36501e-07
1.11909e-08
-1.05236e-07
-1.6913e-07
-1.58517e-07
-7.75398e-08
4.92758e-08
1.63555e-07
2.22974e-07
2.16926e-07
1.36428e-07
1.08173e-08
-1.05735e-07
-1.69606e-07
-1.58796e-07
-7.74772e-08
4.96242e-08
1.64066e-07
2.23477e-07
2.17202e-07
1.36359e-07
1.04364e-08
-1.0625e-07
-1.70099e-07
-1.59088e-07
-7.74188e-08
4.99804e-08
1.64592e-07
2.23997e-07
2.17492e-07
1.36294e-07
1.00481e-08
-1.06779e-07
-1.70609e-07
-1.59394e-07
-7.73642e-08
5.03445e-08
1.65133e-07
2.24533e-07
2.17794e-07
1.36232e-07
9.65289e-09
-1.07323e-07
-1.71135e-07
-1.59712e-07
-7.73138e-08
5.07163e-08
1.65688e-07
2.25085e-07
2.1811e-07
1.36175e-07
9.25109e-09
-1.07881e-07
-1.71678e-07
-1.60044e-07
-7.72677e-08
5.10952e-08
1.66258e-07
2.25652e-07
2.18438e-07
1.36122e-07
8.84297e-09
-1.08452e-07
-1.72236e-07
-1.60389e-07
-7.7226e-08
5.14811e-08
1.66842e-07
2.26235e-07
2.18779e-07
1.36074e-07
8.4289e-09
-1.09037e-07
-1.72811e-07
-1.60746e-07
-7.71889e-08
5.18737e-08
1.6744e-07
2.26834e-07
2.19133e-07
1.3603e-07
8.0092e-09
-1.09635e-07
-1.734e-07
-1.61117e-07
-7.71564e-08
5.22725e-08
1.6805e-07
2.27446e-07
2.19499e-07
1.35991e-07
7.58403e-09
-1.10245e-07
-1.74005e-07
-1.61499e-07
-7.71285e-08
5.26775e-08
1.68674e-07
2.28074e-07
2.19877e-07
1.35957e-07
7.15389e-09
-1.10867e-07
-1.74624e-07
-1.61894e-07
-7.71056e-08
5.30881e-08
1.69309e-07
2.28715e-07
2.20268e-07
1.35928e-07
6.71962e-09
-1.11501e-07
-1.75257e-07
-1.62302e-07
-7.70881e-08
5.35037e-08
1.69956e-07
2.29369e-07
2.2067e-07
1.35904e-07
6.28142e-09
-1.12146e-07
-1.75903e-07
-1.62721e-07
-7.7076e-08
5.39238e-08
1.70615e-07
2.30037e-07
2.21085e-07
1.35885e-07
5.83895e-09
-1.12801e-07
-1.76564e-07
-1.63153e-07
-7.70687e-08
5.4349e-08
1.71284e-07
2.30718e-07
2.21511e-07
1.35872e-07
5.39303e-09
-1.13467e-07
-1.77237e-07
-1.63596e-07
-7.7067e-08
5.47783e-08
1.71964e-07
2.31411e-07
2.21949e-07
1.35866e-07
4.94568e-09
-1.14142e-07
-1.77924e-07
-1.64051e-07
-7.70724e-08
5.52099e-08
1.72653e-07
2.32116e-07
2.22399e-07
1.35867e-07
4.49749e-09
-1.14825e-07
-1.78622e-07
-1.64519e-07
-7.70851e-08
5.5643e-08
1.7335e-07
2.32832e-07
2.22861e-07
1.35874e-07
4.04759e-09
-1.15517e-07
-1.79331e-07
-1.64998e-07
-7.7104e-08
5.60786e-08
1.74056e-07
2.3356e-07
2.23333e-07
1.35888e-07
3.59652e-09
-1.16216e-07
-1.80052e-07
-1.65488e-07
-7.71295e-08
5.65162e-08
1.74769e-07
2.34298e-07
2.23817e-07
1.3591e-07
3.14597e-09
-1.16922e-07
-1.80784e-07
-1.6599e-07
-7.71628e-08
5.6954e-08
1.75489e-07
2.35045e-07
2.24312e-07
1.3594e-07
2.69684e-09
-1.17633e-07
-1.81525e-07
-1.66503e-07
-7.72043e-08
5.73912e-08
1.76215e-07
2.35802e-07
2.24818e-07
1.35978e-07
2.24917e-09
-1.1835e-07
-1.82276e-07
-1.67026e-07
-7.72536e-08
5.78277e-08
1.76945e-07
2.36568e-07
2.25335e-07
1.36024e-07
1.80338e-09
-1.1907e-07
-1.83035e-07
-1.6756e-07
-7.73108e-08
5.82631e-08
1.77681e-07
2.37341e-07
2.25862e-07
1.36078e-07
1.36037e-09
-1.19795e-07
-1.83802e-07
-1.68104e-07
-7.73761e-08
5.86964e-08
1.78419e-07
2.38122e-07
2.26398e-07
1.3614e-07
9.20577e-10
-1.20521e-07
-1.84575e-07
-1.68657e-07
-7.74495e-08
5.91273e-08
1.79161e-07
2.38908e-07
2.26943e-07
1.36211e-07
4.84417e-10
-1.2125e-07
-1.85355e-07
-1.69219e-07
-7.75309e-08
5.95553e-08
1.79904e-07
2.397e-07
2.27497e-07
1.36289e-07
5.24748e-11
-1.2198e-07
-1.8614e-07
-1.69789e-07
-7.76203e-08
5.99798e-08
1.80648e-07
2.40497e-07
2.28059e-07
1.36375e-07
-3.75278e-10
-1.2271e-07
-1.86929e-07
-1.70366e-07
-7.77171e-08
6.04008e-08
1.81392e-07
2.41297e-07
2.28628e-07
1.36469e-07
-7.98564e-10
-1.2344e-07
-1.87722e-07
-1.7095e-07
-7.7821e-08
6.08181e-08
1.82137e-07
2.421e-07
2.29203e-07
1.3657e-07
-1.21585e-09
-1.24168e-07
-1.88517e-07
-1.7154e-07
-7.79329e-08
6.123e-08
1.82879e-07
2.42905e-07
2.29785e-07
1.3668e-07
-1.62577e-09
-1.24892e-07
-1.89312e-07
-1.72136e-07
-7.80532e-08
6.16353e-08
1.83618e-07
2.4371e-07
2.30371e-07
1.36798e-07
-2.02819e-09
-1.25612e-07
-1.90108e-07
-1.72737e-07
-7.81814e-08
6.20338e-08
1.84353e-07
2.44514e-07
2.30963e-07
1.36924e-07
-2.42282e-09
-1.26328e-07
-1.90902e-07
-1.73341e-07
-7.83172e-08
6.24252e-08
1.85082e-07
2.45317e-07
2.31558e-07
1.37059e-07
-2.80836e-09
-1.27037e-07
-1.91695e-07
-1.7395e-07
-7.84613e-08
6.28082e-08
1.85806e-07
2.46117e-07
2.32156e-07
1.37201e-07
-3.18434e-09
-1.27739e-07
-1.92484e-07
-1.74561e-07
-7.86137e-08
6.31822e-08
1.86522e-07
2.46914e-07
2.32758e-07
1.37351e-07
-3.55137e-09
-1.28433e-07
-1.9327e-07
-1.75175e-07
-7.8773e-08
6.3548e-08
1.87231e-07
2.47706e-07
2.33361e-07
1.37507e-07
-3.91016e-09
-1.2912e-07
-1.94051e-07
-1.75789e-07
-7.89379e-08
6.39063e-08
1.87932e-07
2.48493e-07
2.33964e-07
1.37667e-07
-4.26179e-09
-1.298e-07
-1.94826e-07
-1.76401e-07
-7.91065e-08
6.42579e-08
1.88626e-07
2.49274e-07
2.34566e-07
1.37827e-07
-4.60895e-09
-1.30473e-07
-1.95593e-07
-1.77008e-07
-7.92748e-08
6.46057e-08
1.89312e-07
2.50046e-07
2.35162e-07
1.37979e-07
-4.95696e-09
-1.3114e-07
-1.96349e-07
-1.77602e-07
-7.94356e-08
6.49544e-08
1.89992e-07
2.50806e-07
2.35746e-07
1.38119e-07
-5.30953e-09
-1.31802e-07
-1.97089e-07
-1.78179e-07
-7.95829e-08
6.53075e-08
1.90666e-07
2.51551e-07
2.36312e-07
1.38249e-07
-5.66133e-09
-1.32454e-07
-1.97812e-07
-1.78735e-07
-7.9719e-08