/*--------------------------------*- C++ -*----------------------------------*\
| =========                 |                                                 |
| \\      /  F ield         | OpenFOAM: The Open Source CFD Toolbox           |
|  \\    /   O peration     | Version:  2.3.0                                 |
|   \\  /    A nd           | Web:      www.OpenFOAM.org                      |
|    \\/     M anipulation  |                                                 |
\*---------------------------------------------------------------------------*/
FoamFile
{
    version     2.0;
    format      ascii;
    class       volVectorField;
    location    "600";
    object      U;
}
// * * * * * * * * * * * * * * * * * * * * * * * * * * * * * * * * * * * * * //

dimensions      [0 1 -1 0 0 0 0];

internalField   nonuniform List<vector> 
6000
(
(0.656723 -6.78655e-09 -6.11173e-10)
(0.656723 2.20832e-09 -1.36001e-09)
(0.656723 9.75858e-09 -1.37846e-09)
(0.656722 1.30565e-08 -1.9737e-09)
(0.656721 1.15826e-08 -1.69005e-09)
(0.65672 6.49946e-09 1.47465e-09)
(0.656719 -1.27106e-09 3.55058e-09)
(0.65672 -9.16661e-09 1.49869e-09)
(0.656721 -1.36396e-08 5.1174e-11)
(0.656722 -1.25743e-08 3.17765e-10)
(0.773201 -1.21681e-08 -6.61844e-10)
(0.773201 1.0856e-09 -1.51733e-09)
(0.773201 1.3098e-08 -1.58227e-09)
(0.773201 1.94016e-08 -2.13461e-09)
(0.7732 1.86905e-08 -1.86111e-09)
(0.773199 1.20807e-08 1.34568e-09)
(0.773199 6.43428e-10 3.72521e-09)
(0.773199 -1.24765e-08 1.9028e-09)
(0.773199 -2.04326e-08 2.94466e-10)
(0.7732 -2.00486e-08 3.46967e-10)
(0.83055 -1.86803e-08 -6.52092e-10)
(0.83055 -2.04594e-09 -1.5661e-09)
(0.83055 1.44576e-08 -1.68094e-09)
(0.83055 2.46186e-08 -2.1937e-09)
(0.830549 2.58173e-08 -1.90965e-09)
(0.830549 1.86877e-08 1.21479e-09)
(0.830549 4.28677e-09 3.66886e-09)
(0.830548 -1.37864e-08 2.0809e-09)
(0.830549 -2.58915e-08 4.83908e-10)
(0.830549 -2.74572e-08 4.01119e-10)
(0.870579 -2.41937e-08 -6.16901e-10)
(0.87058 -5.43618e-09 -1.5792e-09)
(0.87058 1.44045e-08 -1.74938e-09)
(0.87058 2.78951e-08 -2.23594e-09)
(0.870579 3.11471e-08 -1.93228e-09)
(0.870579 2.41683e-08 1.09955e-09)
(0.870579 7.88545e-09 3.56232e-09)
(0.870579 -1.36322e-08 2.17797e-09)
(0.870579 -2.92413e-08 6.44444e-10)
(0.870579 -3.29904e-08 4.71312e-10)
(0.901467 -2.84958e-08 -5.67416e-10)
(0.901467 -8.54955e-09 -1.57239e-09)
(0.901468 1.36059e-08 -1.79987e-09)
(0.901468 2.97145e-08 -2.2722e-09)
(0.901467 3.48499e-08 -1.9472e-09)
(0.901467 2.83831e-08 9.98784e-10)
(0.901467 1.10692e-08 3.44335e-09)
(0.901467 -1.27279e-08 2.23054e-09)
(0.901467 -3.10362e-08 7.79015e-10)
(0.901467 -3.68166e-08 5.47205e-10)
(0.926676 -3.18791e-08 -5.09422e-10)
(0.926677 -1.12782e-08 -1.55244e-09)
(0.926677 1.25329e-08 -1.83722e-09)
(0.926677 3.07131e-08 -2.30464e-09)
(0.926677 3.74997e-08 -1.96009e-09)
(0.926676 3.16707e-08 9.08686e-10)
(0.926676 1.38027e-08 3.32327e-09)
(0.926676 -1.15714e-08 2.25616e-09)
(0.926676 -3.19664e-08 8.91777e-10)
(0.926676 -3.95307e-08 6.23296e-10)
(0.948063 -3.45715e-08 -4.46535e-10)
(0.948063 -1.36184e-08 -1.52317e-09)
(0.948063 1.14126e-08 -1.86408e-09)
(0.948063 3.12532e-08 -2.33349e-09)
(0.948063 3.9458e-08 -1.97244e-09)
(0.948063 3.42748e-08 8.263e-10)
(0.948063 1.61103e-08 3.20558e-09)
(0.948062 -1.03932e-08 2.26436e-09)
(0.948062 -3.24202e-08 9.86622e-10)
(0.948062 -4.15138e-08 6.96703e-10)
(0.966718 -3.67271e-08 -3.81177e-10)
(0.966718 -1.55982e-08 -1.48702e-09)
(0.966718 1.03474e-08 -1.88214e-09)
(0.966718 3.15284e-08 -2.35849e-09)
(0.966718 4.09357e-08 -1.98431e-09)
(0.966718 3.63529e-08 7.49729e-10)
(0.966718 1.80357e-08 3.09127e-09)
(0.966718 -9.29151e-09 2.26059e-09)
(0.966718 -3.26032e-08 1.06661e-09)
(0.966718 -4.29902e-08 7.65896e-10)
(0.983291 -3.84658e-08 -3.15187e-10)
(0.983291 -1.72591e-08 -1.44584e-09)
(0.983291 9.38681e-09 -1.89261e-09)
(0.983291 3.16584e-08 -2.37933e-09)
(0.983291 4.20769e-08 -1.99529e-09)
(0.983291 3.80247e-08 6.78007e-10)
(0.983291 1.96307e-08 2.98072e-09)
(0.98329 -8.31067e-09 2.24819e-09)
(0.98329 -3.2641e-08 1.13391e-09)
(0.98329 -4.41133e-08 8.29928e-10)
(0.998241 -3.98911e-08 -2.49776e-10)
(0.998241 -1.86525e-08 -1.40098e-09)
(0.998242 8.54893e-09 -1.89651e-09)
(0.998242 3.17225e-08 -2.39584e-09)
(0.998242 4.29914e-08 -2.00489e-09)
(0.998242 3.93927e-08 6.10505e-10)
(0.998241 2.09534e-08 2.87381e-09)
(0.998241 -7.46425e-09 2.22931e-09)
(0.998241 -3.2616e-08 1.19033e-09)
(0.998241 -4.49995e-08 8.88439e-10)
(1.0119 -4.10871e-08 -1.85846e-10)
(1.0119 -1.98292e-08 -1.35356e-09)
(1.0119 7.83437e-09 -1.89472e-09)
(1.0119 3.17712e-08 -2.40797e-09)
(1.0119 4.37599e-08 -2.0126e-09)
(1.0119 4.0539e-08 5.4694e-10)
(1.0119 2.20581e-08 2.7704e-09)
(1.0119 -6.7493e-09 2.20537e-09)
(1.01189 -3.25795e-08 1.23729e-09)
(1.0119 -4.5734e-08 9.41288e-10)
(1.02446 -4.21194e-08 -1.24182e-10)
(1.02446 -2.08343e-08 -1.30457e-09)
(1.02446 7.23474e-09 -1.88803e-09)
(1.02446 3.18353e-08 -2.41575e-09)
(1.02446 4.444e-08 -2.01797e-09)
(1.02446 4.15273e-08 4.87343e-10)
(1.02446 2.2992e-08 2.67056e-09)
(1.02446 -6.15463e-09 2.17747e-09)
(1.02446 -3.25625e-08 1.27585e-09)
(1.02446 -4.63771e-08 9.88391e-10)
(1.03613 -4.30415e-08 -6.5189e-11)
(1.03613 -2.17099e-08 -1.25472e-09)
(1.03613 6.73507e-09 -1.87718e-09)
(1.03613 3.19319e-08 -2.41937e-09)
(1.03613 4.50738e-08 -2.02071e-09)
(1.03613 4.24097e-08 4.31665e-10)
(1.03613 2.37983e-08 2.57416e-09)
(1.03613 -5.6632e-09 2.14635e-09)
(1.03613 -3.25817e-08 1.30699e-09)
(1.03613 -4.69731e-08 1.02993e-09)
(1.04707 -4.38973e-08 -9.01639e-12)
(1.04707 -2.24944e-08 -1.20446e-09)
(1.04707 6.31685e-09 -1.86278e-09)
(1.04707 3.20692e-08 -2.41904e-09)
(1.04707 4.56925e-08 -2.02057e-09)
(1.04707 4.32287e-08 3.79817e-10)
(1.04707 2.45153e-08 2.48084e-09)
(1.04707 -5.25509e-09 2.11251e-09)
(1.04707 -3.26443e-08 1.3316e-09)
(1.04707 -4.75542e-08 1.06622e-09)
(1.05738 -4.47186e-08 4.39303e-11)
(1.05738 -2.32185e-08 -1.15446e-09)
(1.05738 5.96209e-09 -1.84547e-09)
(1.05738 3.22484e-08 -2.41499e-09)
(1.05738 4.63159e-08 -2.01729e-09)
(1.05738 4.4015e-08 3.32072e-10)
(1.05738 2.5174e-08 2.39082e-09)
(1.05738 -4.91131e-09 2.0765e-09)
(1.05738 -3.27511e-08 1.35027e-09)
(1.05738 -4.81405e-08 1.09731e-09)
(1.06708 -4.55295e-08 9.32607e-11)
(1.06708 -2.39081e-08 -1.10542e-09)
(1.06708 5.65278e-09 -1.82595e-09)
(1.06708 3.24661e-08 -2.40757e-09)
(1.06708 4.69561e-08 -2.01078e-09)
(1.06708 4.4792e-08 2.88747e-10)
(1.06708 2.58002e-08 2.30454e-09)
(1.06708 -4.61319e-09 2.03894e-09)
(1.06708 -3.28982e-08 1.36357e-09)
(1.06708 -4.87449e-08 1.12332e-09)
(1.07626 -4.63501e-08 1.38895e-10)
(1.07626 -2.45872e-08 -1.05774e-09)
(1.07626 5.37042e-09 -1.80486e-09)
(1.07626 3.27164e-08 -2.39718e-09)
(1.07626 4.76216e-08 -2.00101e-09)
(1.07626 4.55793e-08 2.49936e-10)
(1.07626 2.64174e-08 2.22208e-09)
(1.07626 -4.34186e-09 2.00032e-09)
(1.07626 -3.30789e-08 1.37215e-09)
(1.07626 -4.93758e-08 1.14455e-09)
(1.08495 -4.7195e-08 1.80707e-10)
(1.08495 -2.52755e-08 -1.01189e-09)
(1.08495 5.09766e-09 -1.78281e-09)
(1.08495 3.29908e-08 -2.38425e-09)
(1.08495 4.83161e-08 -1.98796e-09)
(1.08495 4.6391e-08 2.15813e-10)
(1.08495 2.70452e-08 2.1436e-09)
(1.08495 -4.07981e-09 1.96111e-09)
(1.08495 -3.32843e-08 1.37659e-09)
(1.08495 -5.00367e-08 1.16124e-09)
(1.09315 -4.80725e-08 2.1836e-10)
(1.09315 -2.59878e-08 -9.68588e-10)
(1.09315 4.81892e-09 -1.76061e-09)
(1.09315 3.32791e-08 -2.36931e-09)
(1.09315 4.90383e-08 -1.97171e-09)
(1.09315 4.72353e-08 1.86727e-10)
(1.09315 2.7698e-08 2.06974e-09)
(1.09315 -3.81136e-09 1.92207e-09)
(1.09315 -3.35039e-08 1.37748e-09)
(1.09315 -5.07264e-08 1.17354e-09)
(1.10081 -4.89866e-08 2.51572e-10)
(1.10081 -2.6735e-08 -9.28582e-10)
(1.10081 4.52078e-09 -1.73917e-09)
(1.10081 3.35702e-08 -2.3531e-09)
(1.10081 4.97838e-08 -1.95259e-09)
(1.10081 4.81159e-08 1.62949e-10)
(1.10081 2.83865e-08 2.00131e-09)
(1.10081 -3.52307e-09 1.88412e-09)
(1.10081 -3.37264e-08 1.37554e-09)
(1.10081 -5.14402e-08 1.18177e-09)
(1.10792 -4.99408e-08 2.80336e-10)
(1.10792 -2.7527e-08 -8.92371e-10)
(1.10792 4.19063e-09 -1.7193e-09)
(1.10792 3.38539e-08 -2.33636e-09)
(1.10792 5.05486e-08 -1.93096e-09)
(1.10792 4.90365e-08 1.44521e-10)
(1.10792 2.91206e-08 1.93871e-09)
(1.10792 -3.20241e-09 1.84802e-09)
(1.10792 -3.39415e-08 1.37157e-09)
(1.10792 -5.2174e-08 1.18639e-09)
(1.11446 -5.09348e-08 3.04633e-10)
(1.11446 -2.83702e-08 -8.60471e-10)
(1.11446 3.81802e-09 -1.70185e-09)
(1.11446 3.41197e-08 -2.31989e-09)
(1.11446 5.13259e-08 -1.90722e-09)
(1.11446 4.99964e-08 1.3149e-10)
(1.11446 2.99062e-08 1.88239e-09)
(1.11446 -2.839e-09 1.81458e-09)
(1.11446 -3.41383e-08 1.36638e-09)
(1.11446 -5.29209e-08 1.18785e-09)
(1.12041 -5.1965e-08 3.24524e-10)
(1.12041 -2.92668e-08 -8.3338e-10)
(1.12041 3.39542e-09 -1.6877e-09)
(1.12041 3.43578e-08 -2.30459e-09)
(1.12041 5.21074e-08 -1.88196e-09)
(1.12041 5.09922e-08 1.23815e-10)
(1.12041 3.07457e-08 1.83286e-09)
(1.12041 -2.42536e-09 1.78465e-09)
(1.12041 -3.43071e-08 1.36086e-09)
(1.12041 -5.36725e-08 1.18676e-09)
(1.12574 -5.30294e-08 3.40202e-10)
(1.12574 -3.02203e-08 -8.11459e-10)
(1.12574 2.91561e-09 -1.67766e-09)
(1.12574 3.45598e-08 -2.29134e-09)
(1.12574 5.2887e-08 -1.8557e-09)
(1.12574 5.20219e-08 1.21373e-10)
(1.12574 3.16423e-08 1.79039e-09)
(1.12574 -1.95437e-09 1.75897e-09)
(1.12574 -3.44395e-08 1.35592e-09)
(1.12574 -5.44224e-08 1.18373e-09)
(1.13041 -5.41239e-08 3.51802e-10)
(1.13041 -3.12315e-08 -7.95132e-10)
(1.13041 2.37291e-09 -1.67255e-09)
(1.13041 3.47176e-08 -2.28103e-09)
(1.13041 5.3657e-08 -1.82905e-09)
(1.13041 5.30813e-08 1.24068e-10)
(1.13041 3.25967e-08 1.75538e-09)
(1.13041 -1.42043e-09 1.73834e-09)
(1.13041 -3.45273e-08 1.35242e-09)
(1.13041 -5.51631e-08 1.17937e-09)
(1.13438 -5.52417e-08 3.59495e-10)
(1.13438 -3.22979e-08 -7.84788e-10)
(1.13438 1.76465e-09 -1.67318e-09)
(1.13438 3.48244e-08 -2.27458e-09)
(1.13438 5.44092e-08 -1.8027e-09)
(1.13438 5.41637e-08 1.31716e-10)
(1.13438 3.36066e-08 1.72825e-09)
(1.13438 -8.20895e-10 1.72356e-09)
(1.13438 -3.45636e-08 1.35125e-09)
(1.13438 -5.5886e-08 1.17435e-09)
(1.13761 -5.63779e-08 3.63559e-10)
(1.13761 -3.34176e-08 -7.80671e-10)
(1.13761 1.08902e-09 -1.68026e-09)
(1.13761 3.48753e-08 -2.27285e-09)
(1.13761 5.51374e-08 -1.77729e-09)
(1.13761 5.52642e-08 1.44097e-10)
(1.13761 3.46699e-08 1.70922e-09)
(1.13761 -1.53963e-10 1.71529e-09)
(1.13761 -3.45438e-08 1.35325e-09)
(1.13761 -5.65852e-08 1.16932e-09)
(1.14008 -5.75311e-08 3.64181e-10)
(1.14008 -3.45921e-08 -7.83058e-10)
(1.14008 3.42165e-10 -1.6945e-09)
(1.14008 3.48658e-08 -2.27659e-09)
(1.14008 5.58381e-08 -1.75321e-09)
(1.14008 5.63814e-08 1.61144e-10)
(1.14008 3.57881e-08 1.69847e-09)
(1.14008 5.84106e-10 1.71412e-09)
(1.14008 -3.44629e-08 1.35917e-09)
(1.14008 -5.72568e-08 1.16479e-09)
(1.14175 -5.86985e-08 3.61365e-10)
(1.14175 -3.5822e-08 -7.92307e-10)
(1.14175 -4.79633e-10 -1.71643e-09)
(1.14175 3.47904e-08 -2.28635e-09)
(1.14175 5.65063e-08 -1.73079e-09)
(1.14175 5.75123e-08 1.82847e-10)
(1.14175 3.69616e-08 1.69629e-09)
(1.14175 1.397e-09 1.72055e-09)
(1.14175 -3.43155e-08 1.36952e-09)
(1.14175 -5.78957e-08 1.16109e-09)
(1.14258 -5.98714e-08 3.55222e-10)
(1.14258 -3.70999e-08 -8.08495e-10)
(1.14258 -1.37302e-09 -1.74619e-09)
(1.14258 3.4647e-08 -2.30237e-09)
(1.14258 5.71353e-08 -1.7105e-09)
(1.14258 5.86486e-08 2.08884e-10)
(1.14258 3.81832e-08 1.7028e-09)
(1.14258 2.28141e-09 1.73485e-09)
(1.14258 -3.41e-08 1.38457e-09)
(1.14258 -5.84954e-08 1.15852e-09)
(1.14258 -6.10476e-08 3.45979e-10)
(1.14258 -3.84226e-08 -8.31526e-10)
(1.14258 -2.33502e-09 -1.78395e-09)
(1.14258 3.44374e-08 -2.32496e-09)
(1.14258 5.77248e-08 -1.69264e-09)
(1.14258 5.9788e-08 2.39031e-10)
(1.14258 3.94498e-08 1.71792e-09)
(1.14258 3.23438e-09 1.75714e-09)
(1.14258 -3.3818e-08 1.40457e-09)
(1.14258 -5.90556e-08 1.15733e-09)
(1.14175 -6.22352e-08 3.33422e-10)
(1.14175 -3.97996e-08 -8.61809e-10)
(1.14175 -3.37319e-09 -1.83032e-09)
(1.14175 3.41589e-08 -2.35449e-09)
(1.14175 5.82784e-08 -1.67691e-09)
(1.14175 6.09383e-08 2.73824e-10)
(1.14175 4.07707e-08 1.74192e-09)
(1.14175 4.26337e-09 1.78777e-09)
(1.14175 -3.34665e-08 1.42982e-09)
(1.14175 -5.95796e-08 1.15747e-09)
(1.14008 -6.34331e-08 3.17171e-10)
(1.14008 -4.12314e-08 -8.99597e-10)
(1.14008 -4.48898e-09 -1.88527e-09)
(1.14008 3.38096e-08 -2.39067e-09)
(1.14008 5.87939e-08 -1.66286e-09)
(1.14008 6.20985e-08 3.13651e-10)
(1.14008 4.21461e-08 1.77495e-09)
(1.14008 5.36984e-09 1.82663e-09)
(1.14008 -3.30437e-08 1.46002e-09)
(1.14008 -6.00652e-08 1.15852e-09)
(1.13761 -6.46389e-08 2.9717e-10)
(1.13761 -4.27133e-08 -9.44472e-10)
(1.13761 -5.67749e-09 -1.94797e-09)
(1.13761 3.33927e-08 -2.43267e-09)
(1.13761 5.92722e-08 -1.65018e-09)
(1.13761 6.32664e-08 3.58309e-10)
(1.13761 4.35719e-08 1.81654e-09)
(1.13761 6.54897e-09 1.87301e-09)
(1.13761 -3.25531e-08 1.49443e-09)
(1.13761 -6.05135e-08 1.16004e-09)
(1.13438 -6.58598e-08 2.73294e-10)
(1.13438 -4.42502e-08 -9.96153e-10)
(1.13438 -6.93945e-09 -2.0179e-09)
(1.13438 3.29121e-08 -2.47988e-09)
(1.13438 5.97199e-08 -1.63839e-09)
(1.13438 6.44491e-08 4.07883e-10)
(1.13438 4.50529e-08 1.86637e-09)
(1.13438 7.80146e-09 1.92636e-09)
(1.13438 -3.19986e-08 1.53243e-09)
(1.13438 -6.0931e-08 1.16156e-09)
(1.13041 -6.71055e-08 2.45133e-10)
(1.13041 -4.58502e-08 -1.05473e-09)
(1.13041 -8.27829e-09 -2.09488e-09)
(1.13041 3.23702e-08 -2.5318e-09)
(1.13041 6.01447e-08 -1.62679e-09)
(1.13041 6.56561e-08 4.62918e-10)
(1.13041 4.6597e-08 1.92449e-09)
(1.13041 9.13069e-09 1.98638e-09)
(1.13041 -3.13824e-08 1.57348e-09)
(1.13041 -6.13253e-08 1.16244e-09)
(1.12574 -6.83842e-08 2.12279e-10)
(1.12574 -4.75187e-08 -1.12014e-09)
(1.12574 -9.69432e-09 -2.1784e-09)
(1.12574 3.1772e-08 -2.58765e-09)
(1.12574 6.05548e-08 -1.61453e-09)
(1.12574 6.68959e-08 5.2388e-10)
(1.12574 4.82095e-08 1.99077e-09)
(1.12574 1.05369e-08 2.05249e-09)
(1.12574 -3.07096e-08 1.61677e-09)
(1.12574 -6.17044e-08 1.16191e-09)
(1.12041 -6.97044e-08 1.74529e-10)
(1.12041 -4.92585e-08 -1.19195e-09)
(1.12041 -1.1184e-08 -2.26755e-09)
(1.12041 3.11262e-08 -2.64637e-09)
(1.12041 6.09606e-08 -1.60089e-09)
(1.12041 6.81767e-08 5.9092e-10)
(1.12041 4.98933e-08 2.06472e-09)
(1.12041 1.20166e-08 2.12377e-09)
(1.12041 -2.99889e-08 1.66129e-09)
(1.12041 -6.2079e-08 1.1592e-09)
(1.11446 -7.10787e-08 1.31668e-10)
(1.11446 -5.10757e-08 -1.26984e-09)
(1.11446 -1.27444e-08 -2.36159e-09)
(1.11446 3.04435e-08 -2.70706e-09)
(1.11446 6.13767e-08 -1.58511e-09)
(1.11446 6.95112e-08 6.64279e-10)
(1.11446 5.16545e-08 2.14599e-09)
(1.11446 1.35667e-08 2.19945e-09)
(1.11446 -2.92309e-08 1.70614e-09)
(1.11446 -6.24634e-08 1.1536e-09)
(1.10792 -7.25219e-08 8.33789e-11)
(1.10792 -5.29776e-08 -1.35367e-09)
(1.10792 -1.43725e-08 -2.45994e-09)
(1.10792 2.97364e-08 -2.76894e-09)
(1.10792 6.18201e-08 -1.56643e-09)
(1.10792 7.09143e-08 7.44365e-10)
(1.10792 5.35002e-08 2.23438e-09)
(1.10792 1.51841e-08 2.27889e-09)
(1.10792 -2.8448e-08 1.75047e-09)
(1.10792 -6.28744e-08 1.14437e-09)
(1.1008 -7.40454e-08 2.95474e-11)
(1.10081 -5.49644e-08 -1.44276e-09)
(1.10081 -1.6057e-08 -2.56169e-09)
(1.10081 2.90233e-08 -2.83099e-09)
(1.10081 6.23093e-08 -1.54416e-09)
(1.10081 7.23974e-08 8.31281e-10)
(1.10081 5.54301e-08 2.32935e-09)
(1.1008 1.68573e-08 2.36115e-09)
(1.1008 -2.76585e-08 1.79328e-09)
(1.1008 -6.33303e-08 1.1308e-09)
(1.09315 -7.56626e-08 -2.98999e-11)
(1.09315 -5.70357e-08 -1.53689e-09)
(1.09315 -1.77838e-08 -2.66605e-09)
(1.09315 2.83268e-08 -2.8924e-09)
(1.09315 6.28665e-08 -1.51768e-09)
(1.09315 7.39736e-08 9.25154e-10)
(1.09315 5.74438e-08 2.43047e-09)
(1.09315 1.85721e-08 2.44545e-09)
(1.09315 -2.68847e-08 1.83373e-09)
(1.09315 -6.38531e-08 1.11229e-09)
(1.08495 -7.73879e-08 -9.50716e-11)
(1.08495 -5.91899e-08 -1.63544e-09)
(1.08495 -1.95358e-08 -2.77233e-09)
(1.08495 2.7673e-08 -2.95237e-09)
(1.08495 6.35166e-08 -1.48637e-09)
(1.08495 7.56571e-08 1.02617e-09)
(1.08495 5.95391e-08 2.53736e-09)
(1.08495 2.03116e-08 2.531e-09)
(1.08495 -2.6152e-08 1.87094e-09)
(1.08495 -6.44674e-08 1.08823e-09)
(1.07626 -7.92262e-08 -1.65647e-10)
(1.07626 -6.14113e-08 -1.73763e-09)
(1.07626 -2.12823e-08 -2.87926e-09)
(1.07626 2.70959e-08 -3.00987e-09)
(1.07626 6.42836e-08 -1.44987e-09)
(1.07626 7.74525e-08 1.13392e-09)
(1.07626 6.16998e-08 2.64905e-09)
(1.07626 2.20449e-08 2.61663e-09)
(1.07626 -2.54939e-08 1.90392e-09)
(1.07626 -6.51969e-08 1.05818e-09)
(1.06708 -8.11782e-08 -2.41313e-10)
(1.06708 -6.3677e-08 -1.84262e-09)
(1.06708 -2.29855e-08 -2.98593e-09)
(1.06708 2.66334e-08 -3.06418e-09)
(1.06708 6.51907e-08 -1.40793e-09)
(1.06708 7.93594e-08 1.24812e-09)
(1.06708 6.39024e-08 2.76481e-09)
(1.06708 2.37349e-08 2.70141e-09)
(1.06708 -2.49476e-08 1.93191e-09)
(1.06708 -6.60648e-08 1.02185e-09)
(1.05738 -8.324e-08 -3.22132e-10)
(1.05738 -6.59578e-08 -1.95016e-09)
(1.05738 -2.46014e-08 -3.09202e-09)
(1.05738 2.63272e-08 -3.11495e-09)
(1.05738 6.62608e-08 -1.36014e-09)
(1.05738 8.13731e-08 1.36909e-09)
(1.05738 6.61169e-08 2.88459e-09)
(1.05738 2.53382e-08 2.78491e-09)
(1.05738 -2.45535e-08 1.95428e-09)
(1.05738 -6.7094e-08 9.7876e-10)
(1.04707 -8.53982e-08 -4.08253e-10)
(1.04707 -6.82106e-08 -2.0601e-09)
(1.04707 -2.60739e-08 -3.19723e-09)
(1.04707 2.62245e-08 -3.16181e-09)
(1.04707 6.75135e-08 -1.30597e-09)
(1.04707 8.34784e-08 1.49732e-09)
(1.04707 6.82999e-08 3.00842e-09)
(1.04707 2.68e-08 2.86665e-09)
(1.04707 -2.43575e-08 1.97034e-09)
(1.04707 -6.83046e-08 9.28338e-10)
(1.03613 -8.76179e-08 -4.99378e-10)
(1.03613 -7.03681e-08 -2.1717e-09)
(1.03613 -2.73289e-08 -3.30075e-09)
(1.03613 2.63766e-08 -3.20415e-09)
(1.03613 6.89574e-08 -1.24513e-09)
(1.03613 8.56384e-08 1.63273e-09)
(1.03613 7.0384e-08 3.13573e-09)
(1.03613 2.80482e-08 2.94572e-09)
(1.03613 -2.44098e-08 1.97922e-09)
(1.03613 -6.97067e-08 8.7022e-10)
(1.02446 -8.98463e-08 -5.9527e-10)
(1.02446 -7.23446e-08 -2.28439e-09)
(1.02446 -2.82809e-08 -3.40202e-09)
(1.02446 2.68351e-08 -3.24154e-09)
(1.02446 7.05897e-08 -1.17725e-09)
(1.02446 8.77982e-08 1.7755e-09)
(1.02446 7.22843e-08 3.26619e-09)
(1.02446 2.90003e-08 3.02131e-09)
(1.02446 -2.47608e-08 1.98006e-09)
(1.02446 -7.12995e-08 8.04006e-10)
(1.01189 -9.20105e-08 -6.96166e-10)
(1.01189 -7.40326e-08 -2.39809e-09)
(1.01189 -2.883e-08 -3.50091e-09)
(1.01189 2.76521e-08 -3.27361e-09)
(1.01189 7.23947e-08 -1.10148e-09)
(1.01189 8.98817e-08 1.92667e-09)
(1.01189 7.38947e-08 3.4001e-09)
(1.01189 2.95602e-08 3.09277e-09)
(1.01189 -2.54619e-08 1.9718e-09)
(1.01189 -7.30709e-08 7.28854e-10)
(0.99824 -9.39948e-08 -8.01963e-10)
(0.99824 -7.52835e-08 -2.51228e-09)
(0.99824 -2.8853e-08 -3.59681e-09)
(0.99824 2.88755e-08 -3.29968e-09)
(0.99824 7.43272e-08 -1.0169e-09)
(0.99824 9.17705e-08 2.08701e-09)
(0.998239 7.50703e-08 3.53721e-09)
(0.998239 2.96106e-08 3.15887e-09)
(0.998239 -2.65615e-08 1.95303e-09)
(0.99824 -7.49816e-08 6.43982e-10)
(0.983289 -9.56312e-08 -9.12071e-10)
(0.983289 -7.59042e-08 -2.6259e-09)
(0.983289 -2.82092e-08 -3.68874e-09)
(0.983289 3.05368e-08 -3.31884e-09)
(0.983289 7.62991e-08 -9.22592e-10)
(0.983289 9.32944e-08 2.25692e-09)
(0.983288 7.56249e-08 3.67664e-09)
(0.983288 2.90175e-08 3.21776e-09)
(0.983289 -2.80943e-08 1.92206e-09)
(0.983289 -7.69518e-08 5.48833e-10)
(0.966716 -9.66852e-08 -1.02584e-09)
(0.966716 -7.56491e-08 -2.73787e-09)
(0.966716 -2.67411e-08 -3.77564e-09)
(0.966716 3.2641e-08 -3.32993e-09)
(0.966716 7.81652e-08 -8.17167e-10)
(0.966716 9.42184e-08 2.43718e-09)
(0.966716 7.53242e-08 3.81736e-09)
(0.966716 2.76319e-08 3.26709e-09)
(0.966716 -3.00726e-08 1.87678e-09)
(0.966716 -7.88485e-08 4.42684e-10)
(0.948061 -9.68245e-08 -1.14222e-09)
(0.948061 -7.4202e-08 -2.84667e-09)
(0.948061 -2.42784e-08 -3.85602e-09)
(0.94806 3.51437e-08 -3.33119e-09)
(0.94806 7.96907e-08 -6.98668e-10)
(0.94806 9.42141e-08 2.6286e-09)
(0.94806 7.38703e-08 3.95756e-09)
(0.94806 2.52923e-08 3.30344e-09)
(0.948061 -3.24662e-08 1.81441e-09)
(0.948061 -8.04532e-08 3.24819e-10)
(0.926674 -9.55884e-08 -1.25926e-09)
(0.926674 -7.11722e-08 -2.94981e-09)
(0.926674 -2.06615e-08 -3.92745e-09)
(0.926674 3.79087e-08 -3.31997e-09)
(0.926673 8.05086e-08 -5.64648e-10)
(0.926674 9.28324e-08 2.83141e-09)
(0.926674 7.08994e-08 4.09376e-09)
(0.926674 2.1847e-08 3.32174e-09)
(0.926674 -3.51653e-08 1.73153e-09)
(0.926675 -8.14196e-08 1.9495e-10)
(0.901465 -9.22938e-08 -1.3741e-09)
(0.901465 -6.60487e-08 -3.0438e-09)
(0.901464 -1.57603e-08 -3.9862e-09)
(0.901464 4.06352e-08 -3.29193e-09)
(0.901464 8.00233e-08 -4.11245e-10)
(0.901464 8.942e-08 3.04555e-09)
(0.901464 6.59404e-08 4.22017e-09)
(0.901465 1.71678e-08 3.3143e-09)
(0.901465 -3.79179e-08 1.62335e-09)
(0.901465 -8.11759e-08 5.29389e-11)
(0.870577 -8.57384e-08 -1.48153e-09)
(0.870576 -5.80473e-08 -3.12228e-09)
(0.870575 -9.52685e-09 -4.02515e-09)
(0.870575 4.2624e-08 -3.23915e-09)
(0.870575 7.71093e-08 -2.32934e-10)
(0.870576 8.28577e-08 3.26848e-09)
(0.870576 5.82813e-08 4.32537e-09)
(0.870577 1.11807e-08 3.26851e-09)
(0.870577 -4.01322e-08 1.48324e-09)
(0.870577 -7.8617e-08 -1.00269e-10)
(0.830546 -7.39262e-08 -1.57118e-09)
(0.830545 -4.60525e-08 -3.17205e-09)
(0.830544 -2.22033e-09 -4.02875e-09)
(0.830544 4.23752e-08 -3.14588e-09)
(0.830545 6.97446e-08 -2.24514e-11)
(0.830546 7.13433e-08 3.48958e-09)
(0.830547 4.69433e-08 4.38486e-09)
(0.830548 4.02897e-09 3.16226e-09)
(0.830548 -4.05147e-08 1.30216e-09)
(0.830547 -7.1713e-08 -2.60603e-10)
(0.773196 -5.58126e-08 -1.61878e-09)
(0.773194 -3.02068e-08 -3.15942e-09)
(0.773193 4.68703e-09 -3.9556e-09)
(0.773193 3.77875e-08 -2.97561e-09)
(0.773195 5.6178e-08 2.2803e-10)
(0.773196 5.40238e-08 3.67191e-09)
(0.773198 3.21447e-08 4.33872e-09)
(0.773199 -3.06165e-09 2.95034e-09)
(0.773199 -3.70846e-08 1.0665e-09)
(0.773198 -5.8584e-08 -4.15599e-10)
(0.656714 -3.63763e-08 -1.53781e-09)
(0.656711 -1.68385e-08 -2.93405e-09)
(0.656711 6.68856e-09 -3.60509e-09)
(0.656712 2.75651e-08 -2.55663e-09)
(0.656716 3.83692e-08 5.51268e-10)
(0.656719 3.53199e-08 3.65489e-09)
(0.656722 1.92732e-08 3.94095e-09)
(0.656722 -5.35824e-09 2.44174e-09)
(0.656721 -2.77867e-08 7.03394e-10)
(0.656718 -4.0723e-08 -5.40225e-10)
(0.656723 -7.36444e-09 -2.93562e-09)
(0.656723 1.96408e-09 -4.654e-09)
(0.656723 9.54256e-09 -3.92168e-09)
(0.656722 1.38409e-08 -3.56415e-09)
(0.65672 1.31316e-08 -7.92105e-10)
(0.656719 6.51261e-09 5.11314e-09)
(0.656719 -2.15357e-09 6.14552e-09)
(0.65672 -8.95041e-09 2.7567e-09)
(0.656721 -1.32546e-08 1.51078e-09)
(0.656722 -1.33262e-08 3.51745e-10)
(0.7732 -1.30113e-08 -3.07798e-09)
(0.773201 5.78684e-10 -5.17726e-09)
(0.773201 1.26568e-08 -4.60057e-09)
(0.7732 2.04013e-08 -4.11539e-09)
(0.7732 2.09072e-08 -1.16179e-09)
(0.773199 1.23125e-08 5.15489e-09)
(0.773199 -6.87438e-10 6.83463e-09)
(0.773199 -1.21434e-08 3.62472e-09)
(0.773199 -1.99102e-08 2.01333e-09)
(0.7732 -2.11346e-08 5.17165e-10)
(0.830549 -1.97873e-08 -2.99895e-09)
(0.83055 -2.84139e-09 -5.30708e-09)
(0.83055 1.37512e-08 -4.91177e-09)
(0.83055 2.56036e-08 -4.40975e-09)
(0.830549 2.8518e-08 -1.42532e-09)
(0.830549 1.93665e-08 4.93293e-09)
(0.830548 2.78253e-09 6.96567e-09)
(0.830548 -1.34579e-08 4.078e-09)
(0.830548 -2.52581e-08 2.37759e-09)
(0.830549 -2.86868e-08 7.09754e-10)
(0.870579 -2.5479e-08 -2.84624e-09)
(0.87058 -6.44521e-09 -5.31204e-09)
(0.87058 1.34661e-08 -5.10374e-09)
(0.87058 2.87711e-08 -4.63729e-09)
(0.870579 3.40872e-08 -1.66147e-09)
(0.870579 2.52134e-08 4.65486e-09)
(0.870579 6.47967e-09 6.92709e-09)
(0.870578 -1.3297e-08 4.37174e-09)
(0.870579 -2.85422e-08 2.69131e-09)
(0.870579 -3.42652e-08 9.26639e-10)
(0.901467 -2.98851e-08 -2.65979e-09)
(0.901467 -9.72304e-09 -5.25292e-09)
(0.901468 1.24759e-08 -5.22567e-09)
(0.901468 3.04462e-08 -4.82472e-09)
(0.901467 3.7861e-08 -1.87801e-09)
(0.901467 2.96908e-08 4.36681e-09)
(0.901467 9.85091e-09 6.81057e-09)
(0.901467 -1.23537e-08 4.56542e-09)
(0.901467 -3.02961e-08 2.95976e-09)
(0.901467 -3.80851e-08 1.1495e-09)
(0.926676 -3.33265e-08 -2.45672e-09)
(0.926677 -1.25813e-08 -5.15529e-09)
(0.926677 1.1242e-08 -5.29941e-09)
(0.926677 3.12924e-08 -4.98184e-09)
(0.926677 4.04934e-08 -2.07805e-09)
(0.926676 3.31633e-08 4.08271e-09)
(0.926676 1.27855e-08 6.65344e-09)
(0.926676 -1.11325e-08 4.69024e-09)
(0.926676 -3.11916e-08 3.18754e-09)
(0.926676 -4.07689e-08 1.36846e-09)
(0.948063 -3.60484e-08 -2.24623e-09)
(0.948063 -1.50238e-08 -5.03253e-09)
(0.948063 9.98409e-09 -5.33719e-09)
(0.948063 3.16824e-08 -5.11364e-09)
(0.948063 4.23878e-08 -2.2629e-09)
(0.948063 3.58954e-08 3.8073e-09)
(0.948063 1.52861e-08 6.47368e-09)
(0.948062 -9.87426e-09 4.76527e-09)
(0.948062 -3.16099e-08 3.37938e-09)
(0.948062 -4.27093e-08 1.57804e-09)
(0.966718 -3.82139e-08 -2.03396e-09)
(0.966718 -1.70842e-08 -4.89261e-09)
(0.966718 8.80029e-09 -5.34668e-09)
(0.966718 3.18137e-08 -5.22308e-09)
(0.966718 4.37752e-08 -2.43304e-09)
(0.966718 3.80594e-08 3.5424e-09)
(0.966718 1.73899e-08 6.28098e-09)
(0.966718 -8.68563e-09 4.80275e-09)
(0.966718 -3.17547e-08 3.53937e-09)
(0.966718 -4.41353e-08 1.77511e-09)
(0.98329 -3.99483e-08 -1.82419e-09)
(0.983291 -1.88083e-08 -4.7412e-09)
(0.983291 7.73694e-09 -5.33314e-09)
(0.983291 3.18077e-08 -5.31197e-09)
(0.983291 4.48118e-08 -2.58825e-09)
(0.983291 3.97862e-08 3.28946e-09)
(0.983291 1.91457e-08 6.08152e-09)
(0.98329 -7.61703e-09 4.81091e-09)
(0.98329 -3.17525e-08 3.67064e-09)
(0.98329 -4.52031e-08 1.95744e-09)
(0.998241 -4.1359e-08 -1.61958e-09)
(0.998241 -2.02511e-08 -4.58216e-09)
(0.998242 6.80945e-09 -5.30054e-09)
(0.998242 3.1744e-08 -5.38202e-09)
(0.998242 4.56147e-08 -2.72866e-09)
(0.998241 4.1187e-08 3.04896e-09)
(0.998241 2.06118e-08 5.87904e-09)
(0.998241 -6.6859e-09 4.79578e-09)
(0.998241 -3.16863e-08 3.7762e-09)
(0.998241 -4.60309e-08 2.12413e-09)
(1.0119 -4.25328e-08 -1.42212e-09)
(1.0119 -2.1466e-08 -4.41846e-09)
(1.0119 6.01639e-09 -5.25202e-09)
(1.0119 3.16729e-08 -5.43466e-09)
(1.0119 4.62693e-08 -2.85432e-09)
(1.0119 4.23504e-08 2.82125e-09)
(1.0119 2.18438e-08 5.67611e-09)
(1.0119 -5.89164e-09 4.76182e-09)
(1.01189 -3.1609e-08 3.85866e-09)
(1.01189 -4.6705e-08 2.27476e-09)
(1.02446 -4.3537e-08 -1.23361e-09)
(1.02446 -2.25e-08 -4.25278e-09)
(1.02446 5.34795e-09 -5.1903e-09)
(1.02446 3.16251e-08 -5.47115e-09)
(1.02446 4.6836e-08 -2.96514e-09)
(1.02446 4.33449e-08 2.60702e-09)
(1.02446 2.28906e-08 5.47504e-09)
(1.02446 -5.22454e-09 4.71259e-09)
(1.02446 -3.15527e-08 3.92017e-09)
(1.02446 -4.72871e-08 2.40903e-09)
(1.03613 -4.44268e-08 -1.05487e-09)
(1.03613 -2.33966e-08 -4.08688e-09)
(1.03613 4.78794e-09 -5.11759e-09)
(1.03613 3.16172e-08 -5.49292e-09)
(1.03613 4.73591e-08 -3.06159e-09)
(1.03613 4.4226e-08 2.40619e-09)
(1.03613 2.37971e-08 5.27708e-09)
(1.03613 -4.66823e-09 4.65088e-09)
(1.03613 -3.15353e-08 3.96294e-09)
(1.03613 -4.78224e-08 2.52739e-09)
(1.04707 -4.52468e-08 -8.85986e-10)
(1.04707 -2.41952e-08 -3.92172e-09)
(1.04707 4.31692e-09 -5.03553e-09)
(1.04707 3.1657e-08 -5.50127e-09)
(1.04707 4.78704e-08 -3.14429e-09)
(1.04707 4.50387e-08 2.21819e-09)
(1.04707 2.46036e-08 5.08268e-09)
(1.04707 -4.20298e-09 4.57876e-09)
(1.04707 -3.1565e-08 3.98894e-09)
(1.04707 -4.83437e-08 2.63067e-09)
(1.05738 -4.60297e-08 -7.27904e-10)
(1.05738 -2.49275e-08 -3.75898e-09)
(1.05738 3.91638e-09 -4.94598e-09)
(1.05738 3.17455e-08 -5.49729e-09)
(1.05738 4.83906e-08 -3.21335e-09)
(1.05738 4.58156e-08 2.04353e-09)
(1.05738 2.53423e-08 4.89317e-09)
(1.05738 -3.8099e-09 4.49826e-09)
(1.05738 -3.1643e-08 3.99969e-09)
(1.05738 -4.88722e-08 2.71904e-09)
(1.06708 -4.68004e-08 -5.81561e-10)
(1.06708 -2.56199e-08 -3.60046e-09)
(1.06708 3.5679e-09 -4.85093e-09)
(1.06708 3.18794e-08 -5.48232e-09)
(1.06708 4.89326e-08 -3.26903e-09)
(1.06708 4.65814e-08 1.8829e-09)
(1.06708 2.60402e-08 4.71016e-09)
(1.06708 -3.47027e-09 4.41151e-09)
(1.06708 -3.17663e-08 3.99682e-09)
(1.06708 -4.94212e-08 2.79286e-09)
(1.07626 -4.75795e-08 -4.46992e-10)
(1.07626 -2.62969e-08 -3.44711e-09)
(1.07626 3.25257e-09 -4.75195e-09)
(1.07626 3.20524e-08 -5.45775e-09)
(1.07626 4.95048e-08 -3.31204e-09)
(1.07626 4.73566e-08 1.7361e-09)
(1.07626 2.67219e-08 4.53428e-09)
(1.07626 -3.16495e-09 4.32016e-09)
(1.07626 -3.19285e-08 3.98199e-09)
(1.07626 -4.99997e-08 2.85301e-09)
(1.08495 -4.83819e-08 -3.24366e-10)
(1.08495 -2.69786e-08 -3.29993e-09)
(1.08495 2.95281e-09 -4.65059e-09)
(1.08495 3.22559e-08 -5.42492e-09)
(1.08495 5.01112e-08 -3.34299e-09)
(1.08495 4.81559e-08 1.60315e-09)
(1.08495 2.74077e-08 4.36633e-09)
(1.08495 -2.87615e-09 4.22582e-09)
(1.08495 -3.2121e-08 3.95674e-09)
(1.08495 -5.06117e-08 2.90024e-09)
(1.09315 -4.92166e-08 -2.14469e-10)
(1.09315 -2.76802e-08 -3.16077e-09)
(1.09315 2.6529e-09 -4.54902e-09)
(1.09315 3.24796e-08 -5.38548e-09)
(1.09315 5.07506e-08 -3.3624e-09)
(1.09315 4.89882e-08 1.48476e-09)
(1.09315 2.81129e-08 4.20805e-09)
(1.09315 -2.58802e-09 4.13064e-09)
(1.09315 -3.23335e-08 3.92279e-09)
(1.09315 -5.12563e-08 2.93512e-09)
(1.10081 -5.00879e-08 -1.17964e-10)
(1.10081 -2.84127e-08 -3.03162e-09)
(1.10081 2.33925e-09 -4.44977e-09)
(1.10081 3.27127e-08 -5.34153e-09)
(1.10081 5.14188e-08 -3.37118e-09)
(1.10081 4.98575e-08 1.38159e-09)
(1.10081 2.88485e-08 4.06145e-09)
(1.10081 -2.28685e-09 4.03716e-09)
(1.10081 -3.2555e-08 3.88228e-09)
(1.10081 -5.19292e-08 2.95859e-09)
(1.10792 -5.09998e-08 -3.47139e-11)
(1.10792 -2.91864e-08 -2.91365e-09)
(1.10792 1.99902e-09 -4.35489e-09)
(1.10792 3.29446e-08 -5.29513e-09)
(1.10792 5.21117e-08 -3.37063e-09)
(1.10792 5.07677e-08 1.29349e-09)
(1.10792 2.96248e-08 3.9276e-09)
(1.10792 -1.95974e-09 3.94739e-09)
(1.10792 -3.27748e-08 3.83731e-09)
(1.10792 -5.26264e-08 2.97202e-09)
(1.11446 -5.1952e-08 3.54109e-11)
(1.11446 -3.00079e-08 -2.80804e-09)
(1.11446 1.62157e-09 -4.26645e-09)
(1.11446 3.31646e-08 -5.24845e-09)
(1.11446 5.28224e-08 -3.36208e-09)
(1.11446 5.17184e-08 1.22032e-09)
(1.11446 3.04483e-08 3.80763e-09)
(1.11446 -1.59603e-09 3.86343e-09)
(1.11446 -3.29822e-08 3.79004e-09)
(1.11446 -5.33409e-08 2.97679e-09)
(1.12041 -5.29406e-08 9.26972e-11)
(1.12041 -3.08798e-08 -2.716e-09)
(1.12041 1.19909e-09 -4.18666e-09)
(1.12041 3.33628e-08 -5.20385e-09)
(1.12041 5.35425e-08 -3.34715e-09)
(1.12041 5.27061e-08 1.16182e-09)
(1.12041 3.13217e-08 3.70275e-09)
(1.12041 -1.18789e-09 3.78746e-09)
(1.12041 -3.31673e-08 3.74283e-09)
(1.12041 -5.40645e-08 2.97455e-09)
(1.12574 -5.39636e-08 1.37777e-10)