/*--------------------------------*- C++ -*----------------------------------*\
| =========                 |                                                 |
| \\      /  F ield         | OpenFOAM: The Open Source CFD Toolbox           |
|  \\    /   O peration     | Version:  2.3.0                                 |
|   \\  /    A nd           | Web:      www.OpenFOAM.org                      |
|    \\/     M anipulation  |                                                 |
\*---------------------------------------------------------------------------*/
FoamFile
{
    version     2.0;
    format      ascii;
    class       volScalarField;
    location    "400";
    object      k;
}
// * * * * * * * * * * * * * * * * * * * * * * * * * * * * * * * * * * * * * //

dimensions      [0 2 -2 0 0 0 0];

internalField   nonuniform List<scalar> 
6000
(
0.00698478
0.00698485
0.00698498
0.00698511
0.00698522
0.00698525
0.00698519
0.00698507
0.00698493
0.00698483
0.00691724
0.00691727
0.00691745
0.00691773
0.00691802
0.00691822
0.00691825
0.00691808
0.00691778
0.00691748
0.0064994
0.00649944
0.00649968
0.00650003
0.00650039
0.00650061
0.00650061
0.00650039
0.00650003
0.00649967
0.00616866
0.00616873
0.00616902
0.00616943
0.00616981
0.00617003
0.00616999
0.00616972
0.00616931
0.00616893
0.00588183
0.00588193
0.00588227
0.00588271
0.0058831
0.00588329
0.00588321
0.00588288
0.00588245
0.00588207
0.00561899
0.00561913
0.0056195
0.00561995
0.00562033
0.00562048
0.00562035
0.00562
0.00561955
0.00561918
0.00537089
0.00537107
0.00537146
0.00537192
0.00537226
0.00537237
0.0053722
0.00537182
0.00537137
0.00537103
0.00513287
0.00513308
0.00513349
0.00513393
0.00513424
0.0051343
0.00513409
0.00513369
0.00513326
0.00513295
0.00490239
0.00490263
0.00490304
0.00490346
0.00490373
0.00490374
0.0049035
0.00490309
0.00490268
0.00490242
0.00467804
0.00467831
0.00467871
0.0046791
0.00467932
0.00467929
0.00467903
0.00467862
0.00467824
0.00467802
0.00445907
0.00445935
0.00445975
0.0044601
0.00446027
0.0044602
0.00445991
0.00445952
0.00445917
0.004459
0.00424512
0.00424541
0.00424579
0.0042461
0.00424622
0.00424611
0.00424581
0.00424544
0.00424513
0.00424501
0.00403613
0.00403642
0.00403677
0.00403704
0.00403712
0.00403698
0.00403668
0.00403633
0.00403606
0.00403598
0.00383227
0.00383256
0.00383288
0.0038331
0.00383313
0.00383297
0.00383267
0.00383235
0.00383213
0.00383209
0.0036339
0.00363419
0.00363447
0.00363465
0.00363465
0.00363447
0.00363417
0.00363389
0.00363371
0.00363371
0.00344159
0.00344185
0.0034421
0.00344224
0.0034422
0.00344201
0.00344173
0.00344148
0.00344134
0.00344137
0.00325602
0.00325627
0.00325648
0.00325658
0.00325652
0.00325632
0.00325606
0.00325584
0.00325574
0.00325579
0.00307807
0.0030783
0.00307848
0.00307854
0.00307845
0.00307825
0.00307802
0.00307783
0.00307777
0.00307784
0.00290874
0.00290894
0.00290908
0.00290911
0.00290901
0.00290882
0.00290861
0.00290846
0.00290842
0.00290851
0.00274912
0.00274929
0.0027494
0.00274941
0.0027493
0.00274912
0.00274894
0.00274882
0.0027488
0.0027489
0.00260038
0.00260051
0.00260059
0.00260058
0.00260047
0.00260031
0.00260016
0.00260007
0.00260007
0.00260017
0.00246367
0.00246377
0.00246382
0.0024638
0.00246369
0.00246356
0.00246343
0.00246337
0.00246339
0.00246348
0.0023401
0.00234017
0.0023402
0.00234016
0.00234007
0.00233996
0.00233987
0.00233983
0.00233985
0.00233993
0.00223063
0.00223067
0.00223067
0.00223064
0.00223057
0.00223049
0.00223044
0.00223042
0.00223044
0.00223049
0.00213605
0.00213605
0.00213603
0.002136
0.00213596
0.00213592
0.0021359
0.0021359
0.00213592
0.00213595
0.00205691
0.00205687
0.00205683
0.0020568
0.00205679
0.0020568
0.00205682
0.00205684
0.00205685
0.00205684
0.00199352
0.00199344
0.00199338
0.00199336
0.00199338
0.00199343
0.0019935
0.00199354
0.00199354
0.0019935
0.00194603
0.0019459
0.00194581
0.0019458
0.00194585
0.00194596
0.00194607
0.00194614
0.00194614
0.00194606
0.00191444
0.00191426
0.00191414
0.00191412
0.00191421
0.00191437
0.00191454
0.00191464
0.00191464
0.00191453
0.00189871
0.00189847
0.00189831
0.00189828
0.0018984
0.00189862
0.00189884
0.00189899
0.00189899
0.00189885
0.00189879
0.00189848
0.00189827
0.00189823
0.00189837
0.00189864
0.00189893
0.00189913
0.00189915
0.00189899
0.00191469
0.00191431
0.00191404
0.00191397
0.00191413
0.00191444
0.0019148
0.00191506
0.00191511
0.00191494
0.00194645
0.001946
0.00194566
0.00194554
0.0019457
0.00194606
0.00194649
0.00194682
0.00194692
0.00194675
0.00199413
0.0019936
0.00199318
0.00199301
0.00199315
0.00199355
0.00199405
0.00199446
0.00199462
0.00199447
0.00205771
0.00205712
0.00205661
0.00205637
0.00205648
0.0020569
0.00205747
0.00205797
0.00205821
0.00205809
0.00213708
0.00213643
0.00213582
0.00213549
0.00213556
0.00213599
0.00213663
0.00213723
0.00213755
0.00213748
0.00223191
0.00223119
0.00223049
0.00223006
0.00223007
0.00223051
0.0022312
0.0022319
0.00223232
0.00223231
0.00234163
0.00234086
0.00234007
0.00233954
0.00233947
0.00233989
0.00234064
0.00234143
0.00234196
0.00234203
0.00246548
0.00246467
0.00246379
0.00246315
0.00246299
0.00246338
0.00246416
0.00246505
0.00246569
0.00246585
0.00260247
0.00260164
0.00260067
0.00259992
0.00259967
0.00260001
0.00260082
0.00260178
0.00260254
0.0026028
0.00275151
0.00275067
0.00274962
0.00274876
0.0027484
0.00274868
0.0027495
0.00275053
0.0027514
0.00275178
0.00291141
0.00291058
0.00290948
0.00290851
0.00290803
0.00290824
0.00290904
0.00291014
0.00291112
0.0029116
0.00308101
0.00308021
0.00307907
0.003078
0.0030774
0.00307751
0.00307829
0.00307943
0.00308051
0.00308112
0.00325922
0.00325846
0.00325729
0.00325613
0.00325541
0.00325542
0.00325615
0.00325731
0.00325848
0.00325921
0.00344501
0.00344432
0.00344314
0.0034419
0.00344107
0.00344096
0.00344162
0.00344279
0.00344404
0.00344489
0.00363753
0.00363692
0.00363575
0.00363445
0.0036335
0.00363327
0.00363384
0.003635
0.00363631
0.00363728
0.00383605
0.00383554
0.00383441
0.00383306
0.003832
0.00383164
0.00383211
0.00383323
0.00383459
0.00383566
0.00404002
0.00403964
0.00403856
0.00403719
0.00403603
0.00403552
0.00403588
0.00403694
0.00403833
0.0040395
0.00424908
0.00424882
0.00424783
0.00424645
0.0042452
0.00424456
0.00424478
0.00424577
0.00424716
0.00424842
0.00446305
0.00446293
0.00446203
0.00446067
0.00445935
0.00445858
0.00445865
0.00445955
0.00446092
0.00446224
0.00468197
0.004682
0.00468121
0.00467989
0.00467852
0.00467763
0.00467756
0.00467834
0.00467967
0.00468104
0.00490621
0.00490638
0.00490573
0.00490447
0.00490307
0.00490207
0.00490185
0.0049025
0.00490376
0.00490516
0.00513652
0.00513684
0.00513633
0.00513516
0.00513376
0.00513266
0.0051323
0.0051328
0.00513398
0.00513538
0.00537432
0.00537476
0.0053744
0.00537334
0.00537197
0.0053708
0.00537031
0.00537067
0.00537173
0.0053731
0.00562213
0.00562268
0.00562247
0.00562154
0.00562022
0.00561902
0.00561841
0.00561863
0.00561956
0.00562087
0.00588463
0.00588527
0.00588519
0.0058844
0.00588317
0.00588197
0.00588128
0.00588136
0.00588216
0.00588337
0.00617107
0.00617175
0.00617179
0.00617115
0.00617004
0.00616889
0.00616817
0.00616813
0.00616878
0.00616986
0.00650139
0.00650205
0.00650217
0.00650167
0.00650071
0.00649968
0.00649897
0.00649886
0.00649937
0.00650029
0.00691878
0.00691937
0.00691952
0.00691914
0.00691836
0.00691749
0.0069169
0.00691679
0.00691718
0.0069179
0.00698588
0.00698598
0.00698582
0.00698546
0.00698503
0.00698469
0.00698457
0.00698473
0.00698508
0.00698551
0.00698479
0.00698485
0.00698498
0.00698512
0.00698522
0.00698526
0.00698521
0.00698509
0.00698494
0.00698484
0.00691726
0.00691728
0.00691746
0.00691774
0.00691803
0.00691824
0.00691827
0.00691811
0.00691781
0.00691751
0.00649943
0.00649946
0.00649969
0.00650005
0.00650041
0.00650064
0.00650065
0.00650043
0.00650007
0.00649971
0.00616869
0.00616875
0.00616904
0.00616944
0.00616984
0.00617006
0.00617004
0.00616976
0.00616936
0.00616897
0.00588186
0.00588196
0.00588229
0.00588273
0.00588312
0.00588333
0.00588326
0.00588294
0.0058825
0.00588211
0.00561902
0.00561916
0.00561952
0.00561998
0.00562036
0.00562053
0.00562041
0.00562006
0.0056196
0.00561923
0.00537093
0.0053711
0.00537149
0.00537195
0.0053723
0.00537242
0.00537226
0.00537188
0.00537143
0.00537108
0.0051329
0.00513311
0.00513351
0.00513396
0.00513428
0.00513436
0.00513415
0.00513376
0.00513332
0.005133
0.00490242
0.00490266
0.00490307
0.00490349
0.00490377
0.0049038
0.00490357
0.00490316
0.00490274
0.00490247
0.00467808
0.00467834
0.00467875
0.00467914
0.00467937
0.00467935
0.00467909
0.00467869
0.0046783
0.00467807
0.00445911
0.00445939
0.00445978
0.00446014
0.00446032
0.00446026
0.00445998
0.00445959
0.00445923
0.00445905
0.00424515
0.00424544
0.00424582
0.00424614
0.00424627
0.00424617
0.00424588
0.0042455
0.00424519
0.00424505
0.00403616
0.00403645
0.00403681
0.00403708
0.00403717
0.00403704
0.00403674
0.00403639
0.00403611
0.00403602
0.0038323
0.00383259
0.00383291
0.00383314
0.00383319
0.00383303
0.00383273
0.00383241
0.00383218
0.00383213
0.00363393
0.00363422
0.00363451
0.00363469
0.0036347
0.00363452
0.00363423
0.00363394
0.00363375
0.00363374
0.00344161
0.00344188
0.00344214
0.00344228
0.00344225
0.00344206
0.00344178
0.00344152
0.00344138
0.0034414
0.00325604
0.00325629
0.00325651
0.00325662
0.00325656
0.00325636
0.0032561
0.00325588
0.00325577
0.00325582
0.00307809
0.00307832
0.0030785
0.00307857
0.00307849
0.0030783
0.00307806
0.00307787
0.00307779
0.00307786
0.00290875
0.00290895
0.0029091
0.00290914
0.00290905
0.00290886
0.00290864
0.00290849
0.00290844
0.00290853
0.00274913
0.0027493
0.00274942
0.00274943
0.00274932
0.00274915
0.00274896
0.00274884
0.00274882
0.00274891
0.00260038
0.00260052
0.0026006
0.00260059
0.00260049
0.00260033
0.00260017
0.00260008
0.00260008
0.00260017
0.00246366
0.00246377
0.00246383
0.0024638
0.0024637
0.00246356
0.00246344
0.00246337
0.00246338
0.00246347
0.00234008
0.00234016
0.00234019
0.00234016
0.00234007
0.00233996
0.00233987
0.00233983
0.00233984
0.00233992
0.00223061
0.00223065
0.00223066
0.00223062
0.00223056
0.00223048
0.00223042
0.0022304
0.00223042
0.00223047
0.00213603
0.00213603
0.00213601
0.00213598
0.00213594
0.0021359
0.00213588
0.00213588
0.0021359
0.00213592
0.00205687
0.00205683
0.0020568
0.00205677
0.00205676
0.00205676
0.00205678
0.0020568
0.00205682
0.00205681
0.00199348
0.0019934
0.00199334
0.00199332
0.00199334
0.00199339
0.00199346
0.0019935
0.0019935
0.00199346
0.00194599
0.00194586
0.00194577
0.00194575
0.00194581
0.00194591
0.00194602
0.0019461
0.0019461
0.00194602
0.0019144
0.00191422
0.00191409
0.00191407
0.00191416
0.00191432
0.00191449
0.00191459
0.00191459
0.00191449
0.00189867
0.00189842
0.00189826
0.00189823
0.00189835
0.00189856
0.00189879
0.00189894
0.00189895
0.00189881
0.00189876
0.00189844
0.00189823
0.00189818
0.00189832
0.00189858
0.00189888
0.00189908
0.00189911
0.00189895
0.00191466
0.00191428
0.001914
0.00191392
0.00191407
0.00191439
0.00191474
0.00191501
0.00191507
0.00191491
0.00194642
0.00194597
0.00194562
0.0019455
0.00194565
0.00194601
0.00194644
0.00194677
0.00194688
0.00194672
0.00199411
0.00199359
0.00199315
0.00199297
0.0019931
0.0019935
0.001994
0.00199442
0.00199459
0.00199445
0.00205771
0.00205711
0.00205659
0.00205634
0.00205644
0.00205686
0.00205743
0.00205794
0.00205819
0.00205808
0.00213709
0.00213643
0.00213581
0.00213547
0.00213553
0.00213595
0.00213659
0.0021372
0.00213754
0.00213748
0.00223192
0.00223121
0.0022305
0.00223005
0.00223005
0.00223047
0.00223117
0.00223187
0.00223231
0.00223232
0.00234166
0.00234089
0.00234009
0.00233954
0.00233946
0.00233987
0.00234061
0.00234141
0.00234196
0.00234205
0.00246552
0.00246471
0.00246382
0.00246316
0.00246299
0.00246336
0.00246414
0.00246503
0.00246569
0.00246587
0.00260252
0.00260169
0.00260072
0.00259995
0.00259967
0.0026
0.0026008
0.00260177
0.00260255
0.00260283
0.00275156
0.00275073
0.00274968
0.0027488
0.00274842
0.00274868
0.00274949
0.00275053
0.00275142
0.00275181
0.00291147
0.00291065
0.00290954
0.00290856
0.00290806
0.00290824
0.00290903
0.00291014
0.00291113
0.00291164
0.00308108
0.00308029
0.00307914
0.00307806
0.00307744
0.00307753
0.00307829
0.00307943
0.00308053
0.00308116
0.00325929
0.00325855
0.00325737
0.0032562
0.00325546
0.00325544
0.00325615
0.00325732
0.0032585
0.00325926
0.00344508
0.00344441
0.00344323
0.00344198
0.00344112
0.00344099
0.00344162
0.0034428
0.00344406
0.00344493
0.0036376
0.00363701
0.00363585
0.00363454
0.00363356
0.0036333
0.00363385
0.00363501
0.00363633
0.00363732
0.00383612
0.00383564
0.00383452
0.00383316
0.00383207
0.00383168
0.00383212
0.00383324
0.00383461
0.0038357
0.00404009
0.00403973
0.00403867
0.00403729
0.0040361
0.00403557
0.00403589
0.00403695
0.00403834
0.00403954
0.00424915
0.00424892
0.00424793
0.00424655
0.00424528
0.00424461
0.0042448
0.00424578
0.00424717
0.00424845
0.00446311
0.00446302
0.00446213
0.00446077
0.00445943
0.00445863
0.00445868
0.00445956
0.00446093
0.00446227
0.00468203
0.00468208
0.00468132
0.00468
0.00467861
0.00467769
0.00467759
0.00467835
0.00467967
0.00468106
0.00490626
0.00490646
0.00490583
0.00490458
0.00490317
0.00490214
0.00490188
0.00490251
0.00490377
0.00490518
0.00513656
0.00513691
0.00513642
0.00513526
0.00513385
0.00513273
0.00513233
0.00513281
0.00513398
0.00513539
0.00537435
0.00537483
0.00537449
0.00537344
0.00537206
0.00537087
0.00537035
0.00537068
0.00537173
0.00537311
0.00562215
0.00562274
0.00562255
0.00562163
0.00562031
0.00561909
0.00561845
0.00561864
0.00561956
0.00562087
0.00588465
0.00588531
0.00588526
0.00588448
0.00588325
0.00588204
0.00588132
0.00588137
0.00588215
0.00588337
0.00617108
0.00617179
0.00617185
0.00617123
0.00617011
0.00616896
0.0061682
0.00616814
0.00616877
0.00616985
0.00650139
0.00650208
0.00650222
0.00650174
0.00650078
0.00649973
0.006499
0.00649887
0.00649936
0.00650028
0.00691878
0.00691938
0.00691955
0.00691919
0.00691841
0.00691754
0.00691693
0.0069168
0.00691717
0.00691789
0.00698588
0.006986
0.00698585
0.00698549
0.00698505
0.0069847
0.00698458
0.00698472
0.00698508
0.00698551
0.00698479
0.00698486
0.00698498
0.00698512
0.00698523
0.00698527
0.00698522
0.00698509
0.00698495
0.00698484
0.00691727
0.00691729
0.00691746
0.00691774
0.00691804
0.00691825
0.00691829
0.00691812
0.00691783
0.00691752
0.00649943
0.00649947
0.0064997
0.00650005
0.00650042
0.00650066
0.00650067
0.00650045
0.00650009
0.00649972
0.00616871
0.00616876
0.00616905
0.00616946
0.00616985
0.00617009
0.00617006
0.00616979
0.00616938
0.00616899
0.00588188
0.00588197
0.0058823
0.00588274
0.00588314
0.00588335
0.00588328
0.00588297
0.00588252
0.00588213
0.00561904
0.00561917
0.00561953
0.00561999
0.00562038
0.00562055
0.00562044
0.00562008
0.00561963
0.00561925
0.00537094
0.00537111
0.0053715
0.00537197
0.00537233
0.00537245
0.0053723
0.00537191
0.00537146
0.0053711
0.00513292
0.00513312
0.00513353
0.00513398
0.00513431
0.00513439
0.00513419
0.00513379
0.00513334
0.00513302
0.00490244
0.00490268
0.00490309
0.00490352
0.0049038
0.00490383
0.0049036
0.00490319
0.00490277
0.00490249
0.0046781
0.00467836
0.00467877
0.00467917
0.0046794
0.00467939
0.00467913
0.00467872
0.00467832
0.00467809
0.00445912
0.0044594
0.0044598
0.00446017
0.00446035
0.00446029
0.00446001
0.00445962
0.00445926
0.00445907
0.00424517
0.00424546
0.00424584
0.00424616
0.0042463
0.00424621
0.00424591
0.00424553
0.00424521
0.00424507
0.00403618
0.00403647
0.00403683
0.00403711
0.0040372
0.00403707
0.00403677
0.00403641
0.00403613
0.00403604
0.00383231
0.00383261
0.00383294
0.00383317
0.00383322
0.00383306
0.00383276
0.00383243
0.0038322
0.00383215
0.00363395
0.00363423
0.00363453
0.00363472
0.00363473
0.00363455
0.00363426
0.00363396
0.00363377
0.00363375
0.00344162
0.00344189
0.00344216
0.0034423
0.00344228
0.00344209
0.00344181
0.00344154
0.00344139
0.00344141
0.00325605
0.00325631
0.00325653
0.00325664
0.00325658
0.00325639
0.00325612
0.00325589
0.00325578
0.00325583
0.0030781
0.00307833
0.00307852
0.00307859
0.00307851
0.00307831
0.00307807
0.00307788
0.0030778
0.00307787
0.00290876
0.00290896
0.00290912
0.00290916
0.00290906
0.00290887
0.00290865
0.00290849
0.00290845
0.00290853
0.00274913
0.00274931
0.00274943
0.00274944
0.00274933
0.00274916
0.00274897
0.00274884
0.00274882
0.00274891
0.00260038
0.00260052
0.00260061
0.0026006
0.00260049
0.00260033
0.00260017
0.00260008
0.00260007
0.00260017
0.00246366
0.00246377
0.00246383
0.0024638
0.0024637
0.00246357
0.00246344
0.00246337
0.00246338
0.00246347
0.00234008
0.00234015
0.00234019
0.00234015
0.00234007
0.00233996
0.00233986
0.00233982
0.00233984
0.00233991
0.0022306
0.00223064
0.00223065
0.00223062
0.00223055
0.00223047
0.00223041
0.00223039
0.00223041
0.00223046
0.00213601
0.00213601
0.002136
0.00213597
0.00213592
0.00213589
0.00213586
0.00213586
0.00213588
0.0021359
0.00205686
0.00205682
0.00205678
0.00205675
0.00205674
0.00205674
0.00205676
0.00205678
0.0020568
0.00205679
0.00199346
0.00199338
0.00199332
0.0019933
0.00199332
0.00199337
0.00199343
0.00199348
0.00199348
0.00199344
0.00194597
0.00194584
0.00194575
0.00194573
0.00194578
0.00194589
0.001946
0.00194607
0.00194607
0.001946
0.00191438
0.00191419
0.00191407
0.00191405
0.00191413
0.00191429
0.00191446
0.00191457
0.00191457
0.00191446
0.00189865
0.0018984
0.00189823
0.0018982
0.00189832
0.00189853
0.00189876
0.00189891
0.00189892
0.00189879
0.00189873
0.00189842
0.0018982
0.00189815
0.00189829
0.00189856
0.00189885
0.00189905
0.00189908
0.00189893
0.00191464
0.00191426
0.00191397
0.00191389
0.00191404
0.00191436
0.00191472
0.00191498
0.00191505
0.00191489
0.00194641
0.00194595
0.0019456
0.00194547
0.00194562
0.00194598
0.00194641
0.00194675
0.00194686
0.00194671
0.0019941
0.00199357
0.00199314
0.00199295
0.00199308
0.00199347
0.00199398
0.0019944
0.00199458
0.00199444
0.0020577
0.00205711
0.00205658
0.00205632
0.00205642
0.00205683
0.00205741
0.00205792
0.00205818
0.00205807
0.00213709
0.00213643
0.00213581
0.00213546
0.00213551
0.00213594
0.00213658
0.00213719
0.00213753
0.00213748
0.00223193
0.00223121
0.00223049
0.00223005
0.00223004
0.00223046
0.00223116
0.00223186
0.00223231
0.00223232
0.00234167
0.0023409
0.00234009
0.00233954
0.00233945
0.00233986
0.0023406
0.00234141
0.00234196
0.00234205
0.00246553
0.00246473
0.00246383
0.00246317
0.00246299
0.00246336
0.00246414
0.00246503
0.0024657
0.00246589
0.00260254
0.00260172
0.00260073
0.00259996
0.00259968
0.0026
0.0026008
0.00260178
0.00260256
0.00260285
0.00275159
0.00275076
0.0027497
0.00274882
0.00274843
0.00274868
0.00274949
0.00275054
0.00275143
0.00275183
0.0029115
0.00291068
0.00290957
0.00290858
0.00290807
0.00290825
0.00290904
0.00291015
0.00291115
0.00291167
0.00308111
0.00308033
0.00307918
0.00307808
0.00307746
0.00307754
0.0030783
0.00307945
0.00308055
0.00308119
0.00325932
0.00325859
0.00325741
0.00325623
0.00325548
0.00325546
0.00325616
0.00325733
0.00325852
0.00325929
0.00344512
0.00344445
0.00344327
0.00344202
0.00344115
0.003441
0.00344164
0.00344281
0.00344408
0.00344496
0.00363764
0.00363706
0.0036359
0.00363458
0.00363359
0.00363332
0.00363387
0.00363502
0.00363635
0.00363735
0.00383616
0.00383569
0.00383456
0.0038332
0.00383211
0.0038317
0.00383214
0.00383326
0.00383463
0.00383574
0.00404013
0.00403978
0.00403872
0.00403733
0.00403614
0.0040356
0.00403591
0.00403697
0.00403836
0.00403957
0.00424919
0.00424896
0.00424798
0.0042466
0.00424532
0.00424464
0.00424482
0.0042458
0.00424719
0.00424848
0.00446315
0.00446306
0.00446219
0.00446082
0.00445947
0.00445866
0.0044587
0.00445957
0.00446095
0.0044623
0.00468207
0.00468213
0.00468137
0.00468005
0.00467866
0.00467772
0.00467761
0.00467836
0.00467969
0.00468109
0.00490629
0.00490651
0.00490588
0.00490463
0.00490321
0.00490217
0.00490191
0.00490253
0.00490378
0.00490521
0.0051366
0.00513695
0.00513647
0.00513531
0.00513389
0.00513276
0.00513236
0.00513283
0.005134
0.00513541
0.00537438
0.00537487
0.00537453
0.00537349
0.0053721
0.00537091
0.00537037
0.00537069
0.00537175
0.00537313
0.00562218
0.00562277
0.00562259
0.00562167
0.00562035
0.00561912
0.00561847
0.00561865
0.00561957
0.00562089
0.00588467
0.00588534
0.0058853
0.00588452
0.00588329
0.00588207
0.00588134
0.00588138
0.00588216
0.00588338
0.0061711
0.00617181
0.00617188
0.00617126
0.00617015
0.00616898
0.00616822
0.00616815
0.00616878
0.00616987
0.0065014
0.0065021
0.00650225
0.00650177
0.00650081
0.00649976
0.00649902
0.00649888
0.00649937
0.00650029
0.00691879
0.0069194
0.00691957
0.00691922
0.00691844
0.00691755
0.00691694
0.00691681
0.00691718
0.0069179
0.00698589
0.00698601
0.00698586
0.0069855
0.00698506
0.00698471
0.00698458
0.00698473
0.00698508
0.00698551
0.00698479
0.00698486
0.00698498
0.00698512
0.00698523
0.00698527
0.00698522
0.00698509
0.00698495
0.00698484
0.00691726
0.00691729
0.00691746
0.00691774
0.00691804
0.00691826
0.00691829
0.00691813
0.00691783
0.00691752
0.00649943
0.00649946
0.00649969
0.00650005
0.00650042
0.00650066
0.00650067
0.00650045
0.00650009
0.00649972
0.0061687
0.00616876
0.00616904
0.00616946
0.00616985
0.00617009
0.00617006
0.00616979
0.00616938
0.00616898
0.00588187
0.00588196
0.00588229
0.00588274
0.00588315
0.00588335
0.00588329
0.00588297
0.00588252
0.00588213
0.00561903
0.00561916
0.00561953
0.00561999
0.00562039
0.00562056
0.00562044
0.00562009
0.00561963
0.00561924
0.00537094
0.00537111
0.0053715
0.00537197
0.00537233
0.00537246
0.0053723
0.00537191
0.00537145
0.0053711
0.00513291
0.00513312
0.00513353
0.00513398
0.00513431
0.00513439
0.00513419
0.00513379
0.00513334
0.00513302
0.00490243
0.00490267
0.00490309
0.00490352
0.0049038
0.00490383
0.0049036
0.00490319
0.00490276
0.00490248
0.00467809
0.00467835
0.00467876
0.00467917
0.0046794
0.00467939
0.00467913
0.00467872
0.00467832
0.00467808
0.00445912
0.0044594
0.0044598
0.00446017
0.00446035
0.0044603
0.00446001
0.00445961
0.00445925
0.00445906
0.00424516
0.00424546
0.00424584
0.00424616
0.0042463
0.00424621
0.00424591
0.00424553
0.0042452
0.00424507
0.00403617
0.00403647
0.00403683
0.00403711
0.0040372
0.00403707
0.00403677
0.00403641
0.00403613
0.00403603
0.00383231
0.0038326
0.00383293
0.00383317
0.00383322
0.00383306
0.00383276
0.00383243
0.00383219
0.00383214
0.00363394
0.00363423
0.00363453
0.00363472
0.00363473
0.00363455
0.00363425
0.00363395
0.00363376
0.00363375
0.00344162
0.00344189
0.00344215
0.0034423
0.00344228
0.00344208
0.0034418
0.00344153
0.00344138
0.0034414
0.00325605
0.0032563
0.00325653
0.00325664
0.00325658
0.00325638
0.00325612
0.00325589
0.00325577
0.00325582
0.0030781
0.00307833
0.00307852
0.00307859
0.00307851
0.00307831
0.00307807
0.00307787
0.00307779
0.00307786
0.00290875
0.00290896
0.00290911
0.00290915
0.00290906
0.00290887
0.00290865
0.00290849
0.00290844
0.00290852
0.00274913
0.0027493
0.00274942
0.00274944
0.00274933
0.00274915
0.00274896
0.00274883
0.00274881
0.0027489
0.00260037
0.00260052
0.0026006
0.0026006
0.00260049
0.00260033
0.00260017
0.00260007
0.00260007
0.00260016
0.00246365
0.00246376
0.00246382
0.0024638
0.0024637
0.00246356
0.00246343
0.00246336
0.00246337
0.00246346
0.00234007
0.00234015
0.00234018
0.00234015
0.00234006
0.00233995
0.00233985
0.00233981
0.00233983
0.0023399
0.0022306
0.00223064
0.00223065
0.00223061
0.00223054
0.00223047
0.0022304
0.00223038
0.0022304
0.00223045
0.00213601
0.00213601
0.002136
0.00213596
0.00213592
0.00213588
0.00213586
0.00213585
0.00213587
0.0021359
0.00205685
0.00205681
0.00205678
0.00205675
0.00205673
0.00205674
0.00205676
0.00205678
0.00205679
0.00205678
0.00199346
0.00199338
0.00199331
0.00199329
0.00199331
0.00199336
0.00199343
0.00199347
0.00199348
0.00199344
0.00194596
0.00194583
0.00194574
0.00194572
0.00194577
0.00194588
0.00194599
0.00194606
0.00194607
0.00194599
0.00191438
0.00191419
0.00191406
0.00191404
0.00191413
0.00191429
0.00191445
0.00191456
0.00191456
0.00191446
0.00189864
0.0018984
0.00189823
0.0018982
0.00189831
0.00189853
0.00189875
0.0018989
0.00189892
0.00189878
0.00189873
0.00189842
0.0018982
0.00189815
0.00189828
0.00189855
0.00189884
0.00189904
0.00189908
0.00189892
0.00191463
0.00191425
0.00191397
0.00191389
0.00191403
0.00191435
0.00191471
0.00191498
0.00191504
0.00191488
0.0019464
0.00194595
0.0019456
0.00194547
0.00194561
0.00194597
0.0019464
0.00194675
0.00194686
0.0019467
0.00199409
0.00199357
0.00199313
0.00199294
0.00199307
0.00199346
0.00199397
0.00199439
0.00199457
0.00199443
0.0020577
0.0020571
0.00205658
0.00205631
0.00205641
0.00205683
0.0020574
0.00205792
0.00205817
0.00205807
0.00213708
0.00213642
0.0021358
0.00213545
0.0021355
0.00213593
0.00213657
0.00213718
0.00213753
0.00213747
0.00223193
0.00223121
0.00223049
0.00223004
0.00223003
0.00223045
0.00223115
0.00223186
0.00223231
0.00223232
0.00234167
0.0023409
0.00234009
0.00233954
0.00233945
0.00233985
0.0023406
0.0023414
0.00234196
0.00234205
0.00246553
0.00246473
0.00246383
0.00246316
0.00246298
0.00246335
0.00246413
0.00246503
0.0024657
0.00246588
0.00260254
0.00260171
0.00260073
0.00259995
0.00259967
0.00259999
0.0026008
0.00260177
0.00260256
0.00260285
0.00275159
0.00275076
0.0027497
0.00274881
0.00274842
0.00274868
0.00274948
0.00275053
0.00275143
0.00275183
0.0029115
0.00291068
0.00290957
0.00290858
0.00290807
0.00290824
0.00290904
0.00291014
0.00291115
0.00291167
0.00308112
0.00308033
0.00307918
0.00307808
0.00307745
0.00307753
0.00307829
0.00307944
0.00308054
0.00308119
0.00325932
0.00325859
0.00325741
0.00325623
0.00325548
0.00325545
0.00325616
0.00325733
0.00325852
0.00325929
0.00344512
0.00344446
0.00344328
0.00344201
0.00344115
0.003441
0.00344163
0.00344281
0.00344408
0.00344496
0.00363764
0.00363706
0.0036359
0.00363458
0.00363359
0.00363332
0.00363386
0.00363502
0.00363635
0.00363735
0.00383616
0.00383569
0.00383456
0.0038332
0.0038321
0.0038317
0.00383214
0.00383325
0.00383463
0.00383574
0.00404014
0.00403978
0.00403872
0.00403733
0.00403614
0.00403559
0.00403591
0.00403697
0.00403836
0.00403957
0.00424919
0.00424897
0.00424799
0.0042466
0.00424532
0.00424464
0.00424482
0.00424579
0.00424719
0.00424848
0.00446315
0.00446307
0.00446219
0.00446082
0.00445947
0.00445866
0.0044587
0.00445957
0.00446094
0.0044623
0.00468207
0.00468213
0.00468137
0.00468005
0.00467866
0.00467772
0.00467761
0.00467836
0.00467969
0.00468109
0.0049063
0.00490651
0.00490588
0.00490463
0.00490321
0.00490217
0.00490191
0.00490252
0.00490378
0.00490521
0.0051366
0.00513695
0.00513647
0.00513531
0.00513389
0.00513276
0.00513236
0.00513283
0.005134
0.00513541
0.00537439
0.00537487
0.00537454
0.00537349
0.0053721
0.00537091
0.00537037
0.00537069
0.00537175
0.00537313
0.00562218
0.00562278
0.00562259
0.00562168
0.00562035
0.00561912
0.00561847
0.00561865
0.00561957
0.00562089
0.00588467
0.00588534
0.0058853
0.00588453
0.00588329
0.00588207
0.00588134
0.00588138
0.00588216
0.00588338
0.0061711
0.00617181
0.00617189
0.00617127
0.00617015
0.00616898
0.00616822
0.00616815
0.00616878
0.00616986
0.0065014
0.0065021
0.00650225
0.00650177
0.00650081
0.00649976
0.00649902
0.00649888
0.00649936
0.00650029
0.00691879
0.0069194
0.00691958
0.00691922
0.00691844
0.00691756
0.00691694
0.00691681
0.00691717
0.0069179
0.00698589
0.00698601
0.00698586
0.00698551
0.00698507
0.00698471
0.00698458
0.00698473
0.00698508
0.00698551
0.00698479
0.00698485
0.00698498
0.00698512
0.00698523
0.00698527
0.00698522
0.00698509
0.00698495
0.00698484
0.00691726
0.00691728
0.00691746
0.00691774
0.00691804
0.00691825
0.00691829
0.00691812
0.00691782
0.00691752
0.00649943
0.00649946
0.00649969
0.00650005
0.00650042
0.00650066
0.00650067
0.00650045
0.00650008
0.00649972
0.00616869
0.00616875
0.00616904
0.00616945
0.00616985
0.00617008
0.00617006
0.00616979
0.00616937
0.00616898
0.00588187
0.00588196
0.00588229
0.00588274
0.00588314
0.00588335
0.00588328
0.00588296
0.00588252
0.00588212
0.00561903
0.00561916
0.00561952
0.00561999
0.00562038
0.00562055
0.00562044
0.00562008
0.00561962
0.00561924
0.00537093
0.0053711
0.00537149
0.00537196
0.00537232
0.00537245
0.00537229
0.00537191
0.00537145
0.00537109
0.0051329
0.00513311
0.00513352
0.00513397
0.0051343
0.00513438
0.00513418
0.00513378
0.00513333
0.00513301
0.00490242
0.00490266
0.00490308
0.00490351
0.0049038
0.00490383
0.00490359
0.00490318
0.00490275
0.00490247
0.00467808
0.00467834
0.00467876
0.00467916
0.0046794
0.00467938
0.00467912
0.00467871
0.00467831
0.00467808
0.00445911
0.00445939
0.00445979
0.00446016
0.00446035
0.00446029
0.00446
0.0044596
0.00445924
0.00445905
0.00424515
0.00424545
0.00424583
0.00424616
0.0042463
0.0042462
0.0042459
0.00424552
0.00424519
0.00424506
0.00403616
0.00403646
0.00403682
0.0040371
0.00403719
0.00403706
0.00403676
0.0040364
0.00403612
0.00403602
0.0038323
0.00383259
0.00383292
0.00383316
0.00383321
0.00383305
0.00383275
0.00383242
0.00383218
0.00383213
0.00363393
0.00363422
0.00363452
0.00363471
0.00363472
0.00363454
0.00363424
0.00363394
0.00363375
0.00363374
0.00344161
0.00344188
0.00344215
0.00344229
0.00344227
0.00344208
0.00344179
0.00344153
0.00344137
0.0034414
0.00325604
0.00325629
0.00325652
0.00325663
0.00325657
0.00325638
0.00325611
0.00325588
0.00325577
0.00325581
0.00307809
0.00307832
0.00307851
0.00307858
0.0030785
0.0030783
0.00307806
0.00307786
0.00307779
0.00307786
0.00290875
0.00290895
0.00290911
0.00290915
0.00290905
0.00290886
0.00290864
0.00290848
0.00290843
0.00290852
0.00274912
0.0027493
0.00274942
0.00274943
0.00274933
0.00274915
0.00274895
0.00274883
0.0027488
0.0027489
0.00260037
0.00260051
0.0026006
0.00260059
0.00260049
0.00260032
0.00260016
0.00260006
0.00260006
0.00260015
0.00246365
0.00246376
0.00246382
0.0024638
0.0024637
0.00246356
0.00246343
0.00246336
0.00246337
0.00246345
0.00234007
0.00234015
0.00234018
0.00234015
0.00234006
0.00233995
0.00233985
0.00233981
0.00233982
0.0023399
0.0022306
0.00223064
0.00223065
0.00223061
0.00223054
0.00223046
0.0022304
0.00223038
0.0022304
0.00223045
0.00213601
0.00213601
0.002136
0.00213596
0.00213592
0.00213588
0.00213585
0.00213585
0.00213587
0.0021359
0.00205685
0.00205681
0.00205678
0.00205675
0.00205673
0.00205674
0.00205676
0.00205678
0.00205679
0.00205678
0.00199346
0.00199338
0.00199332
0.00199329
0.00199331
0.00199336
0.00199343
0.00199347
0.00199348
0.00199344
0.00194597
0.00194583
0.00194574
0.00194572
0.00194578
0.00194588
0.00194599