/*--------------------------------*- C++ -*----------------------------------*\
| =========                 |                                                 |
| \\      /  F ield         | OpenFOAM: The Open Source CFD Toolbox           |
|  \\    /   O peration     | Version:  2.3.0                                 |
|   \\  /    A nd           | Web:      www.OpenFOAM.org                      |
|    \\/     M anipulation  |                                                 |
\*---------------------------------------------------------------------------*/
FoamFile
{
    version     2.0;
    format      ascii;
    class       volScalarField;
    location    "400";
    object      nut;
}
// * * * * * * * * * * * * * * * * * * * * * * * * * * * * * * * * * * * * * //

dimensions      [0 2 -1 0 0 0 0];

internalField   nonuniform List<scalar> 
6000
(
0.0003128
0.000312801
0.000312804
0.000312807
0.00031281
0.000312812
0.000312811
0.000312808
0.000312805
0.000312802
0.000781772
0.00078177
0.000781796
0.000781844
0.000781901
0.000781946
0.00078196
0.000781937
0.000781886
0.000781827
0.00121925
0.00121926
0.00121933
0.00121944
0.00121956
0.00121964
0.00121966
0.0012196
0.00121948
0.00121936
0.0016269
0.00162692
0.00162705
0.00162723
0.00162742
0.00162754
0.00162754
0.00162743
0.00162724
0.00162705
0.00199677
0.00199682
0.00199701
0.00199728
0.00199752
0.00199767
0.00199764
0.00199746
0.0019972
0.00199695
0.00232808
0.00232817
0.00232843
0.00232877
0.00232906
0.00232921
0.00232915
0.0023289
0.00232856
0.00232827
0.00262239
0.00262254
0.00262287
0.00262328
0.00262361
0.00262374
0.00262363
0.00262331
0.00262291
0.00262258
0.00288207
0.00288228
0.00288269
0.00288314
0.00288349
0.00288359
0.00288342
0.00288303
0.00288258
0.00288224
0.00310966
0.00310994
0.00311041
0.00311091
0.00311125
0.00311131
0.00311106
0.00311061
0.00311012
0.00310979
0.00330773
0.00330809
0.00330862
0.00330914
0.00330945
0.00330946
0.00330914
0.00330863
0.00330812
0.00330781
0.00347884
0.00347927
0.00347984
0.00348037
0.00348065
0.00348058
0.0034802
0.00347964
0.00347913
0.00347886
0.0036255
0.003626
0.00362661
0.00362713
0.00362735
0.00362721
0.00362677
0.00362618
0.00362568
0.00362546
0.00375026
0.00375082
0.00375146
0.00375194
0.00375211
0.00375189
0.00375138
0.00375078
0.00375031
0.00375015
0.00385567
0.00385629
0.00385693
0.00385738
0.00385747
0.00385718
0.00385662
0.00385602
0.00385559
0.0038555
0.00394437
0.00394503
0.00394567
0.00394606
0.00394607
0.00394571
0.00394512
0.00394452
0.00394415
0.00394413
0.00401905
0.00401974
0.00402036
0.0040207
0.00402063
0.00402021
0.00401959
0.00401902
0.0040187
0.00401876
0.00408254
0.00408324
0.00408383
0.0040841
0.00408396
0.00408348
0.00408285
0.00408231
0.00408206
0.00408219
0.0041377
0.0041384
0.00413895
0.00413914
0.00413893
0.00413841
0.00413779
0.00413729
0.00413711
0.00413731
0.00418744
0.00418813
0.00418862
0.00418874
0.00418848
0.00418793
0.00418732
0.00418688
0.00418677
0.00418702
0.0042346
0.00423526
0.00423569
0.00423574
0.00423543
0.00423488
0.0042343
0.00423392
0.00423387
0.00423416
0.00428178
0.00428239
0.00428275
0.00428275
0.00428241
0.00428187
0.00428135
0.00428103
0.00428102
0.00428133
0.00433114
0.00433168
0.00433196
0.0043319
0.00433156
0.00433106
0.00433061
0.00433036
0.00433039
0.00433069
0.00438405
0.0043845
0.0043847
0.00438461
0.00438429
0.00438386
0.0043835
0.00438332
0.00438337
0.00438364
0.00444086
0.00444118
0.00444129
0.00444118
0.00444092
0.0044406
0.00444035
0.00444024
0.00444031
0.0044405
0.00450054
0.00450072
0.00450073
0.00450061
0.00450044
0.00450027
0.00450016
0.00450014
0.00450019
0.00450028
0.00456064
0.00456063
0.00456053
0.00456042
0.00456036
0.00456038
0.00456045
0.00456052
0.00456056
0.00456052
0.00461736
0.00461713
0.00461689
0.00461679
0.00461688
0.00461713
0.00461741
0.00461761
0.00461762
0.00461742
0.00466607
0.00466558
0.00466518
0.00466507
0.00466533
0.00466583
0.00466637
0.00466671
0.00466671
0.00466634
0.00470203
0.00470126
0.00470065
0.00470052
0.00470093
0.0047017
0.00470253
0.00470306
0.00470308
0.00470256
0.00472135
0.00472027
0.00471943
0.00471924
0.00471977
0.00472082
0.00472195
0.00472272
0.0047228
0.00472214
0.00472184
0.00472043
0.00471933
0.00471902
0.00471964
0.00472094
0.00472239
0.00472342
0.00472362
0.00472289
0.00470347
0.00470175
0.00470036
0.00469989
0.00470053
0.00470203
0.00470379
0.00470513
0.0047055
0.00470475
0.00466843
0.00466643
0.00466473
0.00466404
0.00466464
0.00466629
0.00466834
0.00466999
0.00467059
0.00466991
0.0046206
0.00461835
0.00461634
0.0046154
0.00461589
0.00461761
0.0046199
0.00462187
0.00462275
0.0046222
0.00456468
0.00456224
0.00455995
0.00455872
0.00455903
0.00456077
0.00456324
0.00456551
0.0045667
0.00456635
0.00450532
0.00450275
0.0045002
0.00449867
0.00449876
0.00450043
0.00450304
0.00450559
0.00450709
0.00450698
0.0044463
0.00444366
0.00444089
0.00443907
0.0044389
0.00444045
0.00444313
0.0044459
0.00444772
0.00444789
0.00439008
0.00438743
0.0043845
0.0043824
0.00438196
0.00438334
0.00438601
0.00438897
0.00439108
0.00439154
0.00433767
0.00433507
0.00433202
0.00432968
0.00432896
0.00433012
0.00433275
0.00433583
0.0043382
0.00433895
0.00428873
0.00428624
0.00428313
0.00428059
0.00427958
0.00428051
0.00428303
0.00428617
0.00428876
0.0042898
0.00424187
0.00423953
0.00423642
0.00423372
0.00423246
0.00423313
0.00423549
0.00423863
0.00424138
0.00424269
0.00419493
0.00419279
0.00418973
0.00418692
0.00418542
0.00418583
0.00418799
0.00419108
0.00419394
0.00419549
0.00414532
0.00414339
0.00414044
0.00413757
0.00413587
0.00413601
0.00413794
0.00414093
0.00414385
0.00414559
0.00409017
0.0040885
0.00408571
0.00408282
0.00408096
0.00408083
0.0040825
0.00408533
0.00408826
0.00409017
0.0040266
0.0040252
0.0040226
0.00401976
0.00401777
0.00401739
0.00401878
0.00402141
0.00402429
0.00402633
0.00395171
0.00395059
0.00394822
0.00394548
0.0039434
0.00394279
0.00394389
0.00394629
0.00394907
0.00395119
0.00386271
0.00386187
0.00385977
0.00385716
0.00385504
0.00385423
0.00385504
0.00385716
0.0038598
0.00386196
0.00375689
0.00375633
0.00375451
0.00375208
0.00374997
0.00374898
0.00374951
0.00375135
0.0037538
0.00375594
0.00363164
0.00363134
0.00362981
0.0036276
0.00362554
0.00362442
0.00362468
0.00362622
0.00362845
0.00363053
0.00348439
0.00348434
0.0034831
0.00348114
0.00347917
0.00347796
0.00347798
0.00347922
0.0034812
0.00348318
0.00331265
0.0033128
0.00331185
0.00331015
0.00330833
0.00330707
0.00330689
0.00330783
0.00330954
0.00331138
0.0031139
0.00311421
0.00311353
0.00311211
0.00311045
0.00310921
0.00310886
0.00310953
0.00311097
0.00311263
0.00288561
0.00288603
0.0028856
0.00288445
0.002883
0.00288182
0.00288135
0.00288178
0.00288294
0.00288439
0.00262524
0.00262572
0.00262548
0.0026246
0.00262338
0.0026223
0.00262178
0.00262201
0.0026229
0.00262411
0.00233025
0.00233074
0.00233066
0.00233001
0.00232904
0.0023281
0.00232758
0.00232766
0.0023283
0.00232927
0.00199832
0.00199878
0.0019988
0.00199837
0.00199763
0.00199688
0.0019964
0.00199638
0.00199681
0.00199753
0.0016279
0.00162828
0.00162835
0.00162809
0.00162759
0.00162704
0.00162665
0.00162657
0.00162683
0.00162732
0.0012198
0.00122006
0.00122014
0.00122002
0.00121972
0.00121937
0.00121911
0.00121903
0.00121915
0.00121944
0.000781983
0.000782119
0.000782178
0.000782138
0.000782009
0.000781842
0.000781709
0.000781657
0.0007817
0.000781819
0.000312824
0.000312828
0.000312826
0.000312819
0.000312809
0.0003128
0.000312796
0.000312797
0.000312805
0.000312814
0.000312801
0.000312802
0.000312804
0.000312807
0.00031281
0.000312812
0.000312811
0.000312809
0.000312805
0.000312802
0.000781775
0.000781772
0.000781797
0.000781845
0.000781902
0.000781948
0.000781964
0.000781942
0.000781891
0.000781832
0.00121926
0.00121926
0.00121933
0.00121944
0.00121956
0.00121965
0.00121967
0.00121961
0.00121949
0.00121937
0.00162692
0.00162693
0.00162705
0.00162724
0.00162743
0.00162755
0.00162756
0.00162745
0.00162726
0.00162707
0.00199679
0.00199684
0.00199702
0.00199729
0.00199754
0.00199769
0.00199767
0.0019975
0.00199723
0.00199698
0.0023281
0.00232819
0.00232844
0.00232878
0.00232909
0.00232924
0.00232918
0.00232894
0.0023286
0.0023283
0.00262242
0.00262256
0.00262289
0.0026233
0.00262364
0.00262378
0.00262368
0.00262336
0.00262296
0.00262262
0.00288211
0.00288231
0.00288271
0.00288317
0.00288353
0.00288365
0.00288348
0.00288309
0.00288263
0.00288229
0.0031097
0.00310997
0.00311045
0.00311095
0.0031113
0.00311137
0.00311114
0.00311068
0.00311019
0.00310984
0.00330778
0.00330813
0.00330866
0.00330918
0.00330951
0.00330953
0.00330922
0.00330871
0.0033082
0.00330787
0.00347889
0.00347931
0.00347989
0.00348042
0.00348072
0.00348067
0.00348029
0.00347973
0.00347921
0.00347893
0.00362556
0.00362605
0.00362667
0.00362719
0.00362743
0.00362731
0.00362687
0.00362628
0.00362577
0.00362553
0.00375032
0.00375087
0.00375152
0.00375202
0.00375219
0.00375199
0.00375149
0.00375088
0.0037504
0.00375023
0.00385573
0.00385634
0.003857
0.00385746
0.00385757
0.00385729
0.00385674
0.00385612
0.00385568
0.00385557
0.00394443
0.00394509
0.00394573
0.00394614
0.00394618
0.00394583
0.00394524
0.00394463
0.00394424
0.00394421
0.00401911
0.0040198
0.00402044
0.00402079
0.00402074
0.00402032
0.00401971
0.00401912
0.00401879
0.00401883
0.00408259
0.0040833
0.0040839
0.00408419
0.00408406
0.00408359
0.00408296
0.00408241
0.00408214
0.00408226
0.00413775
0.00413846
0.00413902
0.00413923
0.00413904
0.00413852
0.00413789
0.00413739
0.00413719
0.00413737
0.00418748
0.00418818
0.00418868
0.00418882
0.00418857
0.00418803
0.00418742
0.00418696
0.00418683
0.00418706
0.00423463
0.00423529
0.00423574
0.00423581
0.00423551
0.00423496
0.00423438
0.00423399
0.00423391
0.00423419
0.0042818
0.00428242
0.00428279
0.0042828
0.00428247
0.00428194
0.00428141
0.00428107
0.00428105
0.00428135
0.00433113
0.00433168
0.00433198
0.00433194
0.0043316
0.00433111
0.00433064
0.00433038
0.0043304
0.00433069
0.00438403
0.00438448
0.0043847
0.00438462
0.0043843
0.00438388
0.00438351
0.00438331
0.00438336
0.00438362
0.00444081
0.00444114
0.00444126
0.00444116
0.0044409
0.00444058
0.00444033
0.00444021
0.00444027
0.00444046
0.00450047
0.00450065
0.00450067
0.00450056
0.00450039
0.00450022
0.0045001
0.00450007
0.00450012
0.00450021
0.00456055
0.00456055
0.00456044
0.00456033
0.00456028
0.00456029
0.00456036
0.00456044
0.00456047
0.00456043
0.00461726
0.00461703
0.00461679
0.00461668
0.00461677
0.00461701
0.0046173
0.00461749
0.00461751
0.00461732
0.00466595
0.00466547
0.00466505
0.00466494
0.00466518
0.00466568
0.00466622
0.00466658
0.00466659
0.00466623
0.00470191
0.00470113
0.00470051
0.00470036
0.00470076
0.00470153
0.00470236
0.00470291
0.00470295
0.00470244
0.00472124
0.00472015
0.00471929
0.00471907
0.00471959
0.00472063
0.00472178
0.00472256
0.00472267
0.00472203
0.00472174
0.00472032
0.00471919
0.00471886
0.00471945
0.00472074
0.00472221
0.00472327
0.0047235
0.00472279
0.0047034
0.00470166
0.00470024
0.00469973
0.00470034
0.00470184
0.00470361
0.00470498
0.00470539
0.00470468
0.00466839
0.00466637
0.00466463
0.0046639
0.00466447
0.0046661
0.00466816
0.00466984
0.0046705
0.00466985
0.00462059
0.00461832
0.00461628
0.00461529
0.00461574
0.00461744
0.00461974
0.00462174
0.00462268
0.00462217
0.00456471
0.00456226
0.00455993
0.00455864
0.00455891
0.00456061
0.0045631
0.00456541
0.00456665
0.00456634
0.00450538
0.0045028
0.00450022
0.00449864
0.00449867
0.00450031
0.00450291
0.0045055
0.00450706
0.00450701
0.00444639
0.00444375
0.00444095
0.00443907
0.00443885
0.00444035
0.00444302
0.00444583
0.00444771
0.00444794
0.0043902
0.00438756
0.0043846
0.00438244
0.00438193
0.00438326
0.00438593
0.00438892
0.00439109
0.00439161
0.00433781
0.00433523
0.00433215
0.00432976
0.00432896
0.00433008
0.00433269
0.00433579
0.00433821
0.00433904
0.00428889
0.00428642
0.00428329
0.00428069
0.00427962
0.00428049
0.00428299
0.00428615
0.00428879
0.00428989
0.00424204
0.00423972
0.0042366
0.00423384
0.00423252
0.00423313
0.00423546
0.00423862
0.00424142
0.00424279
0.00419511
0.00419299
0.00418993
0.00418706
0.0041855
0.00418585
0.00418797
0.00419108
0.00419398
0.00419559
0.00414549
0.0041436
0.00414065
0.00413773
0.00413597
0.00413604
0.00413793
0.00414092
0.00414388
0.00414569
0.00409034
0.00408871
0.00408592
0.004083
0.00408107
0.00408088
0.00408251
0.00408534
0.0040883
0.00409027
0.00402676
0.0040254
0.00402281
0.00401994
0.00401789
0.00401745
0.00401879
0.00402142
0.00402432
0.00402642
0.00395185
0.00395078
0.00394843
0.00394566
0.00394353
0.00394286
0.00394391
0.00394629
0.00394909
0.00395126
0.00386284
0.00386205
0.00385996
0.00385734
0.00385517
0.0038543
0.00385506
0.00385717
0.00385982
0.00386202
0.003757
0.00375649
0.00375469
0.00375225
0.0037501
0.00374906
0.00374954
0.00375135
0.00375381
0.003756
0.00363173
0.00363148
0.00362998
0.00362776
0.00362567
0.0036245
0.00362471
0.00362622
0.00362846
0.00363057
0.00348447
0.00348446
0.00348325
0.00348129
0.0034793
0.00347804
0.00347802
0.00347922
0.0034812
0.00348321
0.00331271
0.0033129
0.00331199
0.00331029
0.00330844
0.00330715
0.00330692
0.00330784
0.00330954
0.0033114
0.00311395
0.00311429
0.00311365
0.00311223
0.00311056
0.00310928
0.0031089
0.00310954
0.00311097
0.00311264
0.00288564
0.0028861
0.00288569
0.00288455
0.00288309
0.00288188
0.00288139
0.00288179
0.00288294
0.00288439
0.00262526
0.00262577
0.00262556
0.00262468
0.00262346
0.00262236
0.00262181
0.00262201
0.00262289
0.00262411
0.00233026
0.00233077
0.00233071
0.00233008
0.0023291
0.00232816
0.00232761
0.00232766
0.00232829
0.00232926
0.00199833
0.0019988
0.00199883
0.00199842
0.00199768
0.00199692
0.00199642
0.00199638
0.0019968
0.00199752
0.00162791
0.00162829
0.00162837
0.00162813
0.00162763
0.00162707
0.00162667
0.00162658
0.00162683
0.00162732
0.0012198
0.00122007
0.00122016
0.00122004
0.00121974
0.00121939
0.00121912
0.00121903
0.00121915
0.00121943
0.000781982
0.00078212
0.000782183
0.000782147
0.000782019
0.000781851
0.000781714
0.000781658
0.000781699
0.000781817
0.000312824
0.000312829
0.000312827
0.00031282
0.00031281
0.000312801
0.000312796
0.000312797
0.000312804
0.000312814
0.000312801
0.000312802
0.000312804
0.000312808
0.00031281
0.000312812
0.000312811
0.000312809
0.000312805
0.000312803
0.000781777
0.000781773
0.000781798
0.000781846
0.000781904
0.00078195
0.000781967
0.000781945
0.000781894
0.000781834
0.00121927
0.00121927
0.00121933
0.00121944
0.00121957
0.00121966
0.00121967
0.00121961
0.0012195
0.00121938
0.00162692
0.00162694
0.00162706
0.00162724
0.00162744
0.00162756
0.00162757
0.00162746
0.00162727
0.00162708
0.0019968
0.00199684
0.00199703
0.00199729
0.00199755
0.0019977
0.00199769
0.00199751
0.00199724
0.00199699
0.00232811
0.00232819
0.00232845
0.00232879
0.0023291
0.00232926
0.00232921
0.00232896
0.00232862
0.00232832
0.00262244
0.00262257
0.00262291
0.00262332
0.00262366
0.00262381
0.0026237
0.00262338
0.00262298
0.00262264
0.00288212
0.00288232
0.00288273
0.00288319
0.00288356
0.00288368
0.00288351
0.00288312
0.00288266
0.00288231
0.00310972
0.00310999
0.00311046
0.00311097
0.00311133
0.00311141
0.00311117
0.00311072
0.00311022
0.00310987
0.0033078
0.00330814
0.00330868
0.00330921
0.00330955
0.00330957
0.00330926
0.00330875
0.00330823
0.0033079
0.00347891
0.00347933
0.00347992
0.00348046
0.00348076
0.00348071
0.00348033
0.00347977
0.00347924
0.00347895
0.00362558
0.00362607
0.0036267
0.00362723
0.00362748
0.00362736
0.00362692
0.00362632
0.0036258
0.00362556
0.00375034
0.0037509
0.00375155
0.00375206
0.00375225
0.00375205
0.00375154
0.00375093
0.00375043
0.00375025
0.00385576
0.00385637
0.00385704
0.00385751
0.00385762
0.00385734
0.00385679
0.00385617
0.00385571
0.0038556
0.00394445
0.00394512
0.00394577
0.00394619
0.00394623
0.00394588
0.00394529
0.00394467
0.00394427
0.00394423
0.00401914
0.00401984
0.00402048
0.00402084
0.00402079
0.00402038
0.00401976
0.00401916
0.00401882
0.00401886
0.00408262
0.00408333
0.00408394
0.00408424
0.00408412
0.00408365
0.00408301
0.00408245
0.00408217
0.00408228
0.00413777
0.00413849
0.00413906
0.00413928
0.00413909
0.00413857
0.00413794
0.00413742
0.00413721
0.00413739
0.0041875
0.0041882
0.00418872
0.00418887
0.00418862
0.00418807
0.00418745
0.00418699
0.00418684
0.00418708
0.00423464
0.00423531
0.00423577
0.00423585
0.00423555
0.004235
0.00423441
0.004234
0.00423392
0.0042342
0.0042818
0.00428243
0.00428281
0.00428283
0.0042825
0.00428196
0.00428142
0.00428108
0.00428105
0.00428135
0.00433113
0.00433168
0.00433199
0.00433195
0.00433162
0.00433112
0.00433064
0.00433037
0.00433039
0.00433068
0.00438401
0.00438447
0.00438469
0.00438462
0.0043843
0.00438387
0.00438349
0.00438329
0.00438333
0.0043836
0.00444078
0.00444112
0.00444125
0.00444115
0.00444089
0.00444056
0.0044403
0.00444018
0.00444023
0.00444042
0.00450043
0.00450062
0.00450064
0.00450053
0.00450035
0.00450018
0.00450006
0.00450003
0.00450007
0.00450017
0.0045605
0.0045605
0.0045604
0.00456029
0.00456023
0.00456024
0.0045603
0.00456037
0.00456041
0.00456037
0.0046172
0.00461697
0.00461673
0.00461662
0.0046167
0.00461694
0.00461722
0.00461742
0.00461744
0.00461725
0.00466589
0.0046654
0.00466498
0.00466486
0.0046651
0.0046656
0.00466614
0.0046665
0.00466651
0.00466616
0.00470184
0.00470106
0.00470044
0.00470028
0.00470067
0.00470144
0.00470227
0.00470283
0.00470288
0.00470237
0.00472117
0.00472008
0.00471921
0.00471898
0.00471949
0.00472053
0.00472168
0.00472248
0.00472259
0.00472197
0.00472168
0.00472026
0.00471912
0.00471877
0.00471936
0.00472064
0.00472211
0.00472319
0.00472343
0.00472273
0.00470335
0.00470161
0.00470017
0.00469965
0.00470025
0.00470174
0.00470352
0.0047049
0.00470533
0.00470463
0.00466835
0.00466633
0.00466458
0.00466383
0.00466439
0.00466602
0.00466808
0.00466978
0.00467045
0.00466981
0.00462057
0.0046183
0.00461624
0.00461523
0.00461566
0.00461736
0.00461967
0.00462169
0.00462264
0.00462215
0.0045647
0.00456225
0.0045599
0.0045586
0.00455885
0.00456055
0.00456304
0.00456536
0.00456663
0.00456634
0.0045054
0.00450281
0.00450021
0.00449861
0.00449863
0.00450026
0.00450287
0.00450547
0.00450705
0.00450701
0.00444642
0.00444378
0.00444097
0.00443907
0.00443882
0.00444032
0.00444299
0.00444582
0.00444772
0.00444796
0.00439025
0.00438761
0.00438463
0.00438245
0.00438192
0.00438324
0.00438591
0.00438891
0.0043911
0.00439165
0.00433787
0.00433529
0.0043322
0.00432978
0.00432897
0.00433007
0.00433268
0.0043358
0.00433824
0.00433908
0.00428896
0.00428649
0.00428335
0.00428073
0.00427964
0.0042805
0.00428299
0.00428616
0.00428882
0.00428995
0.00424211
0.0042398
0.00423667
0.0042339
0.00423255
0.00423315
0.00423547
0.00423864
0.00424146
0.00424285
0.00419519
0.00419308
0.00419001
0.00418713
0.00418554
0.00418587
0.00418799
0.0041911
0.00419403
0.00419566
0.00414557
0.00414369
0.00414073
0.0041378
0.00413602
0.00413608
0.00413796
0.00414095
0.00414393
0.00414576
0.00409043
0.0040888
0.00408601
0.00408307
0.00408113
0.00408092
0.00408253
0.00408537
0.00408834
0.00409034
0.00402684
0.00402549
0.0040229
0.00402002
0.00401795
0.00401749
0.00401882
0.00402145
0.00402437
0.00402648
0.00395193
0.00395087
0.00394852
0.00394574
0.00394359
0.0039429
0.00394394
0.00394632
0.00394914
0.00395132
0.00386291
0.00386213
0.00386005
0.00385742
0.00385523
0.00385434
0.00385509
0.0038572
0.00385986
0.00386208
0.00375707
0.00375657
0.00375477
0.00375233
0.00375016
0.0037491
0.00374957
0.00375138
0.00375385
0.00375605
0.00363179
0.00363155
0.00363005
0.00362783
0.00362573
0.00362454
0.00362474
0.00362625
0.00362849
0.00363062
0.00348453
0.00348452
0.00348332
0.00348136
0.00347935
0.00347808
0.00347804
0.00347925
0.00348123
0.00348325
0.00331276
0.00331296
0.00331205
0.00331035
0.00330849
0.00330719
0.00330695
0.00330786
0.00330957
0.00331143
0.00311398
0.00311434
0.0031137
0.00311228
0.00311061
0.00310932
0.00310892
0.00310956
0.00311098
0.00311266
0.00288567
0.00288614
0.00288573
0.0028846
0.00288314
0.00288191
0.00288141
0.0028818
0.00288295
0.00288441
0.00262528
0.0026258
0.00262559
0.00262472
0.0026235
0.00262239
0.00262183
0.00262203
0.0026229
0.00262412
0.00233027
0.0023308
0.00233074
0.00233011
0.00232913
0.00232818
0.00232762
0.00232767
0.0023283
0.00232927
0.00199834
0.00199881
0.00199886
0.00199844
0.00199771
0.00199694
0.00199644
0.00199639
0.00199681
0.00199753
0.00162791
0.0016283
0.00162839
0.00162814
0.00162764
0.00162708
0.00162668
0.00162658
0.00162683
0.00162732
0.0012198
0.00122007
0.00122016
0.00122005
0.00121975
0.0012194
0.00121912
0.00121903
0.00121915
0.00121944
0.000781983
0.000782122
0.000782186
0.000782151
0.000782023
0.000781854
0.000781717
0.00078166
0.000781699
0.000781817
0.000312824
0.000312829
0.000312827
0.00031282
0.00031281
0.000312801
0.000312796
0.000312797
0.000312805
0.000312814
0.000312801
0.000312802
0.000312804
0.000312808
0.00031281
0.000312812
0.000312811
0.000312809
0.000312805
0.000312802
0.000781776
0.000781772
0.000781797
0.000781846
0.000781904
0.000781951
0.000781967
0.000781946
0.000781894
0.000781834
0.00121926
0.00121926
0.00121933
0.00121944
0.00121957
0.00121966
0.00121968
0.00121962
0.0012195
0.00121938
0.00162692
0.00162693
0.00162705
0.00162724
0.00162744
0.00162756
0.00162757
0.00162746
0.00162727
0.00162708
0.0019968
0.00199684
0.00199702
0.00199729
0.00199755
0.0019977
0.00199769
0.00199751
0.00199724
0.00199699
0.00232811
0.00232819
0.00232845
0.00232879
0.0023291
0.00232926
0.00232921
0.00232896
0.00232862
0.00232831
0.00262243
0.00262257
0.0026229
0.00262331
0.00262366
0.00262381
0.0026237
0.00262338
0.00262298
0.00262264
0.00288212
0.00288232
0.00288272
0.00288319
0.00288356
0.00288368
0.00288351
0.00288312
0.00288266
0.0028823
0.00310971
0.00310998
0.00311046
0.00311097
0.00311133
0.00311141
0.00311118
0.00311072
0.00311021
0.00310986
0.00330779
0.00330814
0.00330868
0.00330921
0.00330955
0.00330957
0.00330927
0.00330875
0.00330822
0.00330789
0.0034789
0.00347932
0.00347991
0.00348046
0.00348076
0.00348071
0.00348034
0.00347977
0.00347924
0.00347894
0.00362557
0.00362607
0.00362669
0.00362723
0.00362748
0.00362736
0.00362691
0.00362631
0.00362579
0.00362555
0.00375033
0.00375089
0.00375155
0.00375206
0.00375225
0.00375205
0.00375154
0.00375092
0.00375042
0.00375024
0.00385575
0.00385637
0.00385703
0.00385751
0.00385762
0.00385734
0.00385679
0.00385616
0.0038557
0.00385559
0.00394444
0.00394511
0.00394577
0.00394619
0.00394623
0.00394588
0.00394528
0.00394466
0.00394425
0.00394422
0.00401913
0.00401983
0.00402047
0.00402084
0.00402079
0.00402038
0.00401975
0.00401915
0.0040188
0.00401884
0.0040826
0.00408332
0.00408394
0.00408424
0.00408412
0.00408364
0.004083
0.00408243
0.00408215
0.00408226
0.00413775
0.00413848
0.00413905
0.00413928
0.00413908
0.00413857
0.00413792
0.0041374
0.00413719
0.00413737
0.00418748
0.00418819
0.00418871
0.00418886
0.00418861
0.00418807
0.00418744
0.00418697
0.00418682
0.00418706
0.00423462
0.0042353
0.00423576
0.00423584
0.00423554
0.00423499
0.00423439
0.00423398
0.0042339
0.00423418
0.00428179
0.00428242
0.0042828
0.00428282
0.00428249
0.00428195
0.0042814
0.00428105
0.00428103
0.00428133
0.00433111
0.00433167
0.00433198
0.00433195
0.00433161
0.0043311
0.00433062
0.00433035
0.00433036
0.00433066
0.00438399
0.00438446
0.00438468
0.00438461
0.00438429
0.00438386
0.00438347
0.00438327
0.00438331
0.00438357
0.00444076
0.00444111
0.00444124
0.00444114
0.00444087
0.00444054
0.00444027
0.00444015
0.0044402
0.0044404
0.00450041
0.0045006
0.00450063
0.00450051
0.00450033
0.00450015
0.00450003
0.0045
0.00450005
0.00450014
0.00456047
0.00456048
0.00456038
0.00456027
0.0045602
0.00456021
0.00456027
0.00456034
0.00456038
0.00456035
0.00461717
0.00461695
0.00461671
0.00461659
0.00461667
0.00461691
0.00461719
0.00461739
0.00461741
0.00461722
0.00466586
0.00466538
0.00466496
0.00466484
0.00466507
0.00466556
0.00466611
0.00466647
0.00466648
0.00466614
0.00470182
0.00470104
0.00470041
0.00470025
0.00470064
0.0047014
0.00470224
0.0047028
0.00470284
0.00470234
0.00472115
0.00472005
0.00471918
0.00471895
0.00471946
0.0047205
0.00472165
0.00472245
0.00472256
0.00472194
0.00472166
0.00472023
0.00471909
0.00471873
0.00471932
0.00472061
0.00472208
0.00472315
0.0047234
0.00472271
0.00470332
0.00470158
0.00470014
0.00469961
0.00470022
0.00470171
0.00470349
0.00470487
0.0047053
0.0047046
0.00466833
0.0046663
0.00466455
0.0046638
0.00466435
0.00466598
0.00466805
0.00466975
0.00467042
0.00466979
0.00462055
0.00461828
0.00461622
0.0046152
0.00461563
0.00461733
0.00461964
0.00462167
0.00462262
0.00462213
0.00456469
0.00456223
0.00455988
0.00455858
0.00455882
0.00456052
0.00456301
0.00456534
0.00456661
0.00456632
0.00450539
0.0045028
0.0045002
0.00449859
0.0044986
0.00450023
0.00450285
0.00450545
0.00450704
0.004507
0.00444642
0.00444377
0.00444095
0.00443905
0.0044388
0.0044403
0.00444297
0.0044458
0.00444771
0.00444795
0.00439024
0.0043876
0.00438462
0.00438244
0.0043819
0.00438322
0.00438589
0.0043889
0.00439109
0.00439164
0.00433787
0.00433528
0.00433219
0.00432977
0.00432895
0.00433005
0.00433266
0.00433578
0.00433823
0.00433908
0.00428896
0.00428649
0.00428335
0.00428072
0.00427962
0.00428048
0.00428297
0.00428615
0.00428881
0.00428995
0.00424212
0.00423981
0.00423667
0.00423389
0.00423253
0.00423313
0.00423546
0.00423863
0.00424145
0.00424285
0.00419519
0.00419308
0.00419001
0.00418712
0.00418553
0.00418586
0.00418798
0.00419109
0.00419402
0.00419566
0.00414558
0.0041437
0.00414074
0.0041378
0.00413601
0.00413606
0.00413794
0.00414094
0.00414393
0.00414576
0.00409043
0.00408881
0.00408601
0.00408307
0.00408112
0.00408091
0.00408252
0.00408536
0.00408834
0.00409034
0.00402684
0.0040255
0.0040229
0.00402001
0.00401794
0.00401748
0.00401881
0.00402144
0.00402436
0.00402648
0.00395194
0.00395088
0.00394852
0.00394574
0.00394358
0.00394289
0.00394393
0.00394631
0.00394913
0.00395133
0.00386292
0.00386214
0.00386005
0.00385742
0.00385523
0.00385434
0.00385509
0.00385719
0.00385986
0.00386208
0.00375707
0.00375658
0.00375478
0.00375233
0.00375016
0.0037491
0.00374956
0.00375137
0.00375385
0.00375605
0.0036318
0.00363156
0.00363006
0.00362784
0.00362573
0.00362454
0.00362473
0.00362624
0.00362848
0.00363062
0.00348453
0.00348453
0.00348333
0.00348136
0.00347935
0.00347808
0.00347804
0.00347924
0.00348123
0.00348325
0.00331276
0.00331296
0.00331205
0.00331035
0.00330849
0.00330719
0.00330694
0.00330785
0.00330956
0.00331143
0.00311399
0.00311434
0.0031137
0.00311229
0.00311061
0.00310932
0.00310892
0.00310955
0.00311098
0.00311266
0.00288568
0.00288614
0.00288574
0.0028846
0.00288314
0.00288191
0.0028814
0.0028818
0.00288295
0.00288441
0.00262528
0.0026258
0.0026256
0.00262472
0.0026235
0.00262239
0.00262183
0.00262202
0.0026229
0.00262412
0.00233027
0.0023308
0.00233074
0.00233011
0.00232913
0.00232818
0.00232762
0.00232767
0.0023283
0.00232927
0.00199834
0.00199882
0.00199886
0.00199844
0.00199771
0.00199694
0.00199644
0.00199639
0.00199681
0.00199753
0.00162791
0.0016283
0.00162839
0.00162814
0.00162764
0.00162708
0.00162668
0.00162658
0.00162683
0.00162732
0.00121981
0.00122007
0.00122016
0.00122005
0.00121975
0.0012194
0.00121912
0.00121903
0.00121915
0.00121943
0.000781983
0.000782122
0.000782187
0.000782151
0.000782023
0.000781854
0.000781717
0.000781659
0.000781699
0.000781817
0.000312824
0.000312829
0.000312827
0.00031282
0.00031281
0.000312801
0.000312796
0.000312797
0.000312805
0.000312814
0.000312801
0.000312801
0.000312804
0.000312807
0.00031281
0.000312812
0.000312811
0.000312809
0.000312805
0.000312802
0.000781775
0.000781772
0.000781797
0.000781845
0.000781903
0.000781951
0.000781967
0.000781945
0.000781894
0.000781834
0.00121926
0.00121926
0.00121933
0.00121944
0.00121957
0.00121966
0.00121967
0.00121961
0.0012195
0.00121937
0.00162692
0.00162693
0.00162705
0.00162724
0.00162744
0.00162756
0.00162757
0.00162746
0.00162727
0.00162708
0.00199679
0.00199684
0.00199702
0.00199729
0.00199755
0.0019977
0.00199769
0.00199751
0.00199724
0.00199699
0.0023281
0.00232818
0.00232844
0.00232879
0.0023291
0.00232926
0.0023292
0.00232896
0.00232861
0.00232831
0.00262242
0.00262256
0.0026229
0.00262331
0.00262366
0.00262381
0.0026237
0.00262338
0.00262297
0.00262263
0.00288211
0.00288231
0.00288272
0.00288319
0.00288355
0.00288367
0.00288351
0.00288311
0.00288265
0.00288229
0.0031097
0.00310997
0.00311045
0.00311096
0.00311133
0.0031114
0.00311117
0.00311071
0.0031102
0.00310985
0.00330778
0.00330813
0.00330867
0.0033092
0.00330954
0.00330957
0.00330926
0.00330874
0.00330821
0.00330788
0.00347889
0.00347931
0.0034799
0.00348045
0.00348075
0.0034807
0.00348032
0.00347976
0.00347922
0.00347893
0.00362555
0.00362605
0.00362668
0.00362722
0.00362747
0.00362735
0.0036269
0.0036263
0.00362578
0.00362553
0.00375031
0.00375088
0.00375153
0.00375205
0.00375224
0.00375204
0.00375153
0.00375091
0.00375041
0.00375022
0.00385573
0.00385635
0.00385702
0.00385749
0.00385761
0.00385733
0.00385677
0.00385614
0.00385568
0.00385557
0.00394442
0.00394509
0.00394576
0.00394618
0.00394622
0.00394587
0.00394527
0.00394464
0.00394424
0.0039442
0.00401911
0.00401981
0.00402046
0.00402082
0.00402078
0.00402036
0.00401973
0.00401913
0.00401878
0.00401882
0.00408259
0.00408331
0.00408392
0.00408422
0.0040841
0.00408363
0.00408298
0.00408241
0.00408213
0.00408224
0.00413774
0.00413846
0.00413904
0.00413926
0.00413907
0.00413855
0.00413791
0.00413738
0.00413717
0.00413735
0.00418746
0.00418818
0.0041887
0.00418885
0.0041886
0.00418805
0.00418742
0.00418695
0.00418681
0.00418704
0.00423461
0.00423529
0.00423575
0.00423583
0.00423553
0.00423497
0.00423438
0.00423396
0.00423388
0.00423416
0.00428177
0.0042824
0.00428279
0.00428281
0.00428248
0.00428193
0.00428139
0.00428104
0.00428101
0.00428131
0.0043311
0.00433166
0.00433197
0.00433194
0.0043316
0.00433109
0.00433061
0.00433033
0.00433035
0.00433065
0.00438398
0.00438445
0.00438467
0.0043846
0.00438428
0.00438384
0.00438346
0.00438325
0.0043833
0.00438356
0.00444075
0.0044411
0.00444123
0.00444113
0.00444086
0.00444053
0.00444026
0.00444014
0.00444019
0.00444039
0.0045004
0.0045006
0.00450062
0.00450051
0.00450033
0.00450015
0.00450002
0.00449999
0.00450004
0.00450014
0.00456047
0.00456048
0.00456038
0.00456026
0.0045602
0.00456021
0.00456027
0.00456034
0.00456037
0.00456034