/*--------------------------------*- C++ -*----------------------------------*\
| =========                 |                                                 |
| \\      /  F ield         | OpenFOAM: The Open Source CFD Toolbox           |
|  \\    /   O peration     | Version:  2.3.0                                 |
|   \\  /    A nd           | Web:      www.OpenFOAM.org                      |
|    \\/     M anipulation  |                                                 |
\*---------------------------------------------------------------------------*/
FoamFile
{
    version     2.0;
    format      ascii;
    class       volScalarField;
    location    "400";
    object      p;
}
// * * * * * * * * * * * * * * * * * * * * * * * * * * * * * * * * * * * * * //

dimensions      [0 2 -2 0 0 0 0];

internalField   nonuniform List<scalar> 
6000
(
2.0364e-07
-6.31434e-08
-3.40726e-07
-5.74656e-07
-7.07899e-07
-6.68079e-07
-4.57864e-07
-1.53417e-07
1.29243e-07
2.85739e-07
2.01507e-07
-6.42203e-08
-3.40626e-07
-5.73299e-07
-7.05861e-07
-6.65983e-07
-4.56632e-07
-1.5351e-07
1.2789e-07
2.83562e-07
1.98528e-07
-6.46367e-08
-3.38899e-07
-5.69811e-07
-7.01421e-07
-6.63026e-07
-4.5583e-07
-1.55199e-07
1.24347e-07
2.78741e-07
1.95777e-07
-6.3841e-08
-3.35488e-07
-5.64842e-07
-6.96782e-07
-6.60383e-07
-4.56253e-07
-1.58537e-07
1.19396e-07
2.73661e-07
1.93696e-07
-6.19203e-08
-3.30884e-07
-5.59118e-07
-6.92093e-07
-6.58457e-07
-4.57875e-07
-1.6306e-07
1.13731e-07
2.68546e-07
1.92467e-07
-5.90636e-08
-3.25525e-07
-5.53147e-07
-6.87748e-07
-6.574e-07
-4.60515e-07
-1.68349e-07
1.0784e-07
2.63805e-07
1.92145e-07
-5.54367e-08
-3.19732e-07
-5.47282e-07
-6.84027e-07
-6.57258e-07
-4.63998e-07
-1.74085e-07
1.02066e-07
2.59715e-07
1.92726e-07
-5.11943e-08
-3.13762e-07
-5.41783e-07
-6.81095e-07
-6.58026e-07
-4.68161e-07
-1.80009e-07
9.66653e-08
2.56433e-07
1.9416e-07
-4.64938e-08
-3.07835e-07
-5.36843e-07
-6.79042e-07
-6.59656e-07
-4.72835e-07
-1.85898e-07
9.18275e-08
2.54038e-07
1.96362e-07
-4.14928e-08
-3.02132e-07
-5.32595e-07
-6.77898e-07
-6.62064e-07
-4.77854e-07
-1.91568e-07
8.76856e-08
2.52552e-07
1.99226e-07
-3.63424e-08
-2.96797e-07
-5.29124e-07
-6.77649e-07
-6.65142e-07
-4.8306e-07
-1.96869e-07
8.43201e-08
2.51956e-07
2.02632e-07
-3.11827e-08
-2.91944e-07
-5.26468e-07
-6.78244e-07
-6.68768e-07
-4.88307e-07
-2.01691e-07
8.17669e-08
2.52195e-07
2.06453e-07
-2.61402e-08
-2.87653e-07
-5.2463e-07
-6.79605e-07
-6.72813e-07
-4.93465e-07
-2.05953e-07
8.00253e-08
2.5319e-07
2.10564e-07
-2.13251e-08
-2.83976e-07
-5.23582e-07
-6.81632e-07
-6.77146e-07
-4.98424e-07
-2.09605e-07
7.90645e-08
2.54845e-07
2.14844e-07
-1.68313e-08
-2.80941e-07
-5.23272e-07
-6.84215e-07
-6.81642e-07
-5.0309e-07
-2.12624e-07
7.88296e-08
2.57056e-07
2.1918e-07
-1.27349e-08
-2.78551e-07
-5.2363e-07
-6.87236e-07
-6.86181e-07
-5.0739e-07
-2.15012e-07
7.92466e-08
2.5971e-07
2.23472e-07
-9.09438e-09
-2.76792e-07
-5.24571e-07
-6.90574e-07
-6.90655e-07
-5.1127e-07
-2.1679e-07
8.02267e-08
2.62698e-07
2.27634e-07
-5.95041e-09
-2.75629e-07
-5.25998e-07
-6.94109e-07
-6.94967e-07
-5.14698e-07
-2.17999e-07
8.16709e-08
2.6591e-07
2.31591e-07
-3.32626e-09
-2.75014e-07
-5.2781e-07
-6.97725e-07
-6.99037e-07
-5.17657e-07
-2.18696e-07
8.34725e-08
2.69243e-07
2.35285e-07
-1.22889e-09
-2.74885e-07
-5.29898e-07
-7.01314e-07
-7.02796e-07
-5.20149e-07
-2.18951e-07
8.55208e-08
2.72599e-07
2.38668e-07
3.49821e-10
-2.75167e-07
-5.32152e-07
-7.04773e-07
-7.06192e-07
-5.22189e-07
-2.18843e-07
8.7704e-08
2.75889e-07
2.41707e-07
1.43157e-09
-2.75782e-07
-5.34466e-07
-7.0801e-07
-7.09184e-07
-5.23806e-07
-2.18457e-07
8.99144e-08
2.79027e-07
2.44374e-07
2.04939e-09
-2.76648e-07
-5.36741e-07
-7.10949e-07
-7.11747e-07
-5.25036e-07
-2.17874e-07
9.20545e-08
2.8194e-07
2.46653e-07
2.24437e-09
-2.77687e-07
-5.38893e-07
-7.13531e-07
-7.1387e-07
-5.25917e-07
-2.17167e-07
9.40462e-08
2.84567e-07
2.48544e-07
2.06409e-09
-2.78838e-07
-5.40868e-07
-7.15728e-07
-7.15562e-07
-5.2649e-07
-2.16393e-07
9.58416e-08
2.8687e-07
2.50066e-07
1.56325e-09
-2.80055e-07
-5.42646e-07
-7.17555e-07
-7.1686e-07
-5.268e-07
-2.15585e-07
9.74332e-08
2.88849e-07
2.5127e-07
8.07904e-10
-2.81313e-07
-5.44254e-07
-7.19073e-07
-7.17837e-07
-5.26899e-07
-2.1475e-07
9.88595e-08
2.90547e-07
2.52255e-07
-1.1583e-10
-2.82601e-07
-5.45758e-07
-7.20399e-07
-7.18611e-07
-5.26857e-07
-2.13885e-07
1.00202e-07
2.92063e-07
2.53168e-07
-1.09043e-09
-2.83907e-07
-5.47256e-07
-7.217e-07
-7.19348e-07
-5.26777e-07
-2.12986e-07
1.01569e-07
2.93546e-07
2.54206e-07
-1.95696e-09
-2.85196e-07
-5.48849e-07
-7.23169e-07
-7.20259e-07
-5.26804e-07
-2.12077e-07
1.0307e-07
2.95177e-07
2.55607e-07
-2.51112e-09
-2.8639e-07
-5.50609e-07
-7.25e-07
-7.21584e-07
-5.27131e-07
-2.11232e-07
1.04777e-07
2.97146e-07
2.57616e-07
-2.50925e-09
-2.87351e-07
-5.52548e-07
-7.27348e-07
-7.23563e-07
-5.27992e-07
-2.10589e-07
1.06701e-07
2.9961e-07
2.60465e-07
-1.68515e-09
-2.87879e-07
-5.54599e-07
-7.30305e-07
-7.26411e-07
-5.29649e-07
-2.10359e-07
1.0876e-07
3.02668e-07
2.64337e-07
2.25508e-10
-2.87721e-07
-5.56607e-07
-7.33872e-07
-7.30289e-07
-5.32361e-07
-2.10804e-07
1.10787e-07
3.06336e-07
2.69346e-07
3.45811e-09
-2.86599e-07
-5.58345e-07
-7.37961e-07
-7.35284e-07
-5.36363e-07
-2.12219e-07
1.12534e-07
3.10541e-07
2.75522e-07
8.19552e-09
-2.84236e-07
-5.59534e-07
-7.424e-07
-7.414e-07
-5.41835e-07
-2.14898e-07
1.13706e-07
3.15127e-07
2.8281e-07
1.45522e-08
-2.80383e-07
-5.59879e-07
-7.46959e-07
-7.48563e-07
-5.48889e-07
-2.19099e-07
1.13991e-07
3.19877e-07
2.9108e-07
2.25675e-08
-2.74846e-07
-5.59094e-07
-7.51369e-07
-7.56625e-07
-5.57558e-07
-2.25024e-07
1.13093e-07
3.24531e-07
3.00137e-07
3.22059e-08
-2.67496e-07
-5.56924e-07
-7.55348e-07
-7.65385e-07
-5.67799e-07
-2.32807e-07
1.10752e-07
3.28808e-07
3.09732e-07
4.33634e-08
-2.58272e-07
-5.53161e-07
-7.58616e-07
-7.74597e-07
-5.79494e-07
-2.42501e-07
1.06756e-07
3.32423e-07
3.19582e-07
5.58733e-08
-2.47188e-07
-5.47648e-07
-7.60904e-07
-7.83982e-07
-5.92458e-07
-2.54089e-07
1.00953e-07
3.35096e-07
3.29373e-07
6.95092e-08
-2.34321e-07
-5.40283e-07
-7.61966e-07
-7.93242e-07
-6.06453e-07
-2.6748e-07
9.32487e-08
3.36565e-07
3.38774e-07
8.39892e-08
-2.19814e-07
-5.31017e-07
-7.6158e-07
-8.02061e-07
-6.21189e-07
-2.8252e-07
8.36043e-08
3.36588e-07
3.47445e-07
9.89848e-08
-2.03869e-07
-5.19858e-07
-7.59551e-07
-8.10118e-07
-6.36339e-07
-2.98995e-07
7.20374e-08
3.34951e-07
3.55045e-07
1.14132e-07
-1.86741e-07
-5.06864e-07
-7.55721e-07
-8.17093e-07
-6.51539e-07
-3.16637e-07
5.86206e-08
3.31477e-07
3.61241e-07
1.2904e-07
-1.68735e-07
-4.9215e-07
-7.49965e-07
-8.2267e-07
-6.66402e-07
-3.35129e-07
4.34815e-08
3.26026e-07
3.65717e-07
1.43299e-07
-1.50204e-07
-4.75887e-07
-7.42208e-07
-8.26555e-07
-6.80522e-07
-3.5411e-07
2.68031e-08
3.18509e-07
3.68188e-07
1.56493e-07
-1.31541e-07
-4.58299e-07
-7.32423e-07
-8.28478e-07
-6.9349e-07
-3.7318e-07
8.82575e-09
3.08892e-07
3.68411e-07
1.68208e-07
-1.13168e-07
-4.39676e-07
-7.20646e-07
-8.28213e-07
-7.04901e-07
-3.91908e-07
-1.01532e-08
2.97203e-07
3.66203e-07
1.7805e-07
-9.55361e-08
-4.20357e-07
-7.06982e-07
-8.25589e-07
-7.14374e-07
-4.09842e-07
-2.97801e-08
2.83549e-07
3.61453e-07
1.85661e-07
-7.91041e-08
-4.00741e-07
-6.91615e-07
-8.20506e-07
-7.21563e-07
-4.26521e-07
-4.96459e-08
2.68115e-07
3.54146e-07
1.90738e-07
-6.43327e-08
-3.81279e-07
-6.74818e-07
-8.12956e-07
-7.26183e-07
-4.41485e-07
-6.92895e-08
2.5118e-07
3.4438e-07
1.9306e-07
-5.16645e-08
-3.62476e-07
-6.56966e-07
-8.03041e-07
-7.28029e-07
-4.54295e-07
-8.82011e-08
2.3313e-07
3.3239e-07
1.92507e-07
-4.15034e-08
-3.44877e-07
-6.38534e-07
-7.90992e-07
-7.27002e-07
-4.64556e-07
-1.0583e-07
2.14461e-07
3.18577e-07
1.89094e-07
-3.41894e-08
-3.29059e-07
-6.20133e-07
-7.77205e-07
-7.23143e-07
-4.71939e-07
-1.21598e-07
1.95799e-07
3.03556e-07
1.82987e-07
-2.99894e-08
-3.15625e-07
-6.02487e-07
-7.62285e-07
-7.16648e-07
-4.76195e-07
-1.34899e-07
1.77904e-07
2.88187e-07
1.74507e-07
-2.91387e-08
-3.05264e-07
-5.86503e-07
-7.47075e-07
-7.07902e-07
-4.77123e-07
-1.45032e-07
1.61748e-07
2.73683e-07
1.64277e-07
-3.18187e-08
-2.98869e-07
-5.73458e-07
-7.32746e-07
-6.97634e-07
-4.74612e-07
-1.51104e-07
1.4873e-07
2.61927e-07
1.53667e-07
-3.76087e-08
-2.97242e-07
-5.65075e-07
-7.21077e-07
-6.87321e-07
-4.6916e-07
-1.52368e-07
1.40714e-07
2.56391e-07
1.46464e-07
-4.33644e-08
-2.99203e-07
-5.62678e-07
-7.15687e-07
-6.80251e-07
-4.63512e-07
-1.50139e-07
1.38507e-07
2.03475e-07
-6.5659e-08
-3.4421e-07
-5.75838e-07
-7.09396e-07
-6.69608e-07
-4.58501e-07
-1.52759e-07
1.30889e-07
2.87725e-07
2.01308e-07
-6.67987e-08
-3.44167e-07
-5.74514e-07
-7.07376e-07
-6.6748e-07
-4.57217e-07
-1.52801e-07
1.29561e-07
2.85545e-07
1.98245e-07
-6.73364e-08
-3.42526e-07
-5.71055e-07
-7.02955e-07
-6.64443e-07
-4.56317e-07
-1.54413e-07
1.2604e-07
2.80996e-07
1.95373e-07
-6.6705e-08
-3.39201e-07
-5.66086e-07
-6.98249e-07
-6.61685e-07
-4.56624e-07
-1.57681e-07
1.21083e-07
2.7583e-07
1.93151e-07
-6.49811e-08
-3.34675e-07
-5.60333e-07
-6.93464e-07
-6.59623e-07
-4.58128e-07
-1.62151e-07
1.15384e-07
2.70609e-07
1.91769e-07
-6.2348e-08
-3.29379e-07
-5.54309e-07
-6.89003e-07
-6.58423e-07
-4.60658e-07
-1.67406e-07
1.09436e-07
2.65748e-07
1.91293e-07
-5.89682e-08
-3.23633e-07
-5.4837e-07
-6.85152e-07
-6.5814e-07
-4.64047e-07
-1.7313e-07
1.03586e-07
2.61522e-07
1.91725e-07
-5.49946e-08
-3.17696e-07
-5.42779e-07
-6.82084e-07
-6.58775e-07
-4.68132e-07
-1.79064e-07
9.80924e-08
2.581e-07
1.93019e-07
-5.05842e-08
-3.11786e-07
-5.37731e-07
-6.79894e-07
-6.60285e-07
-4.7275e-07
-1.84982e-07
9.31506e-08
2.55567e-07
1.95094e-07
-4.58954e-08
-3.06087e-07
-5.33366e-07
-6.78617e-07
-6.62587e-07
-4.77734e-07
-1.907e-07
8.88962e-08
2.53948e-07
1.97846e-07
-4.10809e-08
-3.00745e-07
-5.29771e-07
-6.78244e-07
-6.65578e-07
-4.82926e-07
-1.96065e-07
8.54132e-08
2.53228e-07
2.01155e-07
-3.62837e-08
-2.95879e-07
-5.2699e-07
-6.78725e-07
-6.69136e-07
-4.88178e-07
-2.00963e-07
8.27414e-08
2.53354e-07
2.04897e-07
-3.16335e-08
-2.9157e-07
-5.25028e-07
-6.79984e-07
-6.73133e-07
-4.9336e-07
-2.05311e-07
8.08835e-08
2.54251e-07
2.08944e-07
-2.72449e-08
-2.87874e-07
-5.2386e-07
-6.81925e-07
-6.77437e-07
-4.98358e-07
-2.09055e-07
7.98118e-08
2.55823e-07
2.13175e-07
-2.32167e-08
-2.84821e-07
-5.23437e-07
-6.84438e-07
-6.81921e-07
-5.03075e-07
-2.12169e-07
7.9474e-08
2.57968e-07
2.17475e-07
-1.96303e-08
-2.82419e-07
-5.23691e-07
-6.87404e-07
-6.86464e-07
-5.07437e-07
-2.14651e-07
7.97981e-08
2.60573e-07
2.21744e-07
-1.65504e-08
-2.80655e-07
-5.24539e-07
-6.90704e-07
-6.90957e-07
-5.11387e-07
-2.16521e-07
8.06972e-08
2.63527e-07
2.25891e-07
-1.40245e-08
-2.79498e-07
-5.25885e-07
-6.94215e-07
-6.953e-07
-5.14887e-07
-2.17817e-07
8.20735e-08
2.66722e-07
2.29841e-07
-1.20836e-08
-2.78902e-07
-5.27628e-07
-6.97823e-07
-6.99412e-07
-5.17921e-07
-2.18593e-07
8.3821e-08
2.70052e-07
2.33533e-07
-1.07428e-08
-2.78805e-07
-5.29661e-07
-7.01416e-07
-7.0322e-07
-5.20486e-07
-2.18917e-07
8.58292e-08
2.7342e-07
2.36917e-07
-1.00023e-08
-2.79136e-07
-5.31873e-07
-7.04891e-07
-7.0667e-07
-5.22597e-07
-2.18868e-07
8.79863e-08
2.76732e-07
2.39957e-07
-9.85038e-09
-2.79818e-07
-5.34157e-07
-7.08154e-07
-7.09718e-07
-5.24279e-07
-2.18528e-07
9.0184e-08
2.79902e-07
2.42622e-07
-1.02656e-08
-2.80768e-07
-5.36414e-07
-7.11125e-07
-7.12338e-07
-5.25565e-07
-2.17979e-07
9.23241e-08
2.82855e-07
2.44896e-07
-1.1219e-08
-2.81912e-07
-5.3856e-07
-7.13746e-07
-7.14516e-07
-5.26494e-07
-2.17294e-07
9.43276e-08
2.85528e-07
2.46776e-07
-1.26751e-08
-2.83185e-07
-5.40537e-07
-7.15988e-07
-7.1626e-07
-5.27106e-07
-2.16529e-07
9.61453e-08
2.87882e-07
2.48281e-07
-1.4592e-08
-2.84542e-07
-5.42326e-07
-7.17861e-07
-7.17607e-07
-5.27445e-07
-2.15718e-07
9.77683e-08
2.89915e-07
2.49465e-07
-1.69151e-08
-2.85957e-07
-5.43952e-07
-7.19429e-07
-7.18629e-07
-5.27566e-07
-2.14873e-07
9.92335e-08
2.9167e-07
2.50426e-07
-1.95681e-08
-2.87417e-07
-5.4548e-07
-7.20808e-07
-7.19447e-07
-5.27541e-07
-2.1399e-07
1.0062e-07
2.93245e-07
2.51316e-07
-2.24418e-08
-2.88904e-07
-5.47004e-07
-7.22162e-07
-7.20229e-07
-5.27477e-07
-2.13072e-07
1.02033e-07
2.94789e-07
2.52335e-07
-2.5384e-08
-2.90381e-07
-5.48621e-07
-7.23686e-07
-7.21188e-07
-5.27524e-07
-2.12147e-07
1.03577e-07
2.96484e-07
2.53722e-07
-2.81968e-08
-2.91763e-07
-5.504e-07
-7.2557e-07
-7.22565e-07
-5.2788e-07
-2.11296e-07
1.05323e-07
2.98515e-07
2.55726e-07
-3.06435e-08
-2.92907e-07
-5.52347e-07
-7.27968e-07
-7.24602e-07
-5.28784e-07
-2.10662e-07
1.07272e-07
3.0104e-07
2.58577e-07
-3.24666e-08
-2.9361e-07
-5.5439e-07
-7.30967e-07
-7.27512e-07
-5.30497e-07
-2.10459e-07
1.09339e-07
3.0415e-07
2.62457e-07
-3.34123e-08
-2.93615e-07
-5.56369e-07
-7.34564e-07
-7.31454e-07
-5.33281e-07
-2.10957e-07
1.11351e-07
3.07857e-07
2.67473e-07
-3.32578e-08
-2.92642e-07
-5.58051e-07
-7.38662e-07
-7.36508e-07
-5.37367e-07
-2.1245e-07
1.13055e-07
3.12079e-07
2.73651e-07
-3.18379e-08
-2.90414e-07
-5.59156e-07
-7.43086e-07
-7.42675e-07
-5.42933e-07
-2.15231e-07
1.14152e-07
3.16657e-07
2.8093e-07
-2.90843e-08
-2.86684e-07
-5.59384e-07
-7.476e-07
-7.49871e-07
-5.50086e-07
-2.19557e-07
1.1433e-07
3.21366e-07
2.89176e-07
-2.50001e-08
-2.81264e-07
-5.58448e-07
-7.5193e-07
-7.57945e-07
-5.58853e-07
-2.25629e-07
1.1329e-07
3.25941e-07
2.9819e-07
-1.95749e-08
-2.7404e-07
-5.56092e-07
-7.55792e-07
-7.66689e-07
-5.69184e-07
-2.33573e-07
1.10774e-07
3.301e-07
3.07718e-07
-1.16168e-08
-2.64947e-07
-5.52116e-07
-7.58902e-07
-7.75851e-07
-5.80955e-07
-2.43439e-07
1.06573e-07
3.33553e-07
3.17468e-07
3.7503e-13
-2.53848e-07
-5.4637e-07
-7.60994e-07
-7.85151e-07
-5.93975e-07
-2.55202e-07
1.00538e-07
3.36022e-07
3.27128e-07
1.50901e-08
-2.40694e-07
-5.38754e-07
-7.61822e-07
-7.94286e-07
-6.08001e-07
-2.68767e-07
9.25803e-08
3.37244e-07
3.36361e-07
3.32444e-08
-2.25771e-07
-5.29229e-07
-7.61167e-07
-8.0294e-07
-6.22739e-07
-2.83971e-07
8.26664e-08
3.36982e-07
3.4483e-07
5.27892e-08
-2.0944e-07
-5.17802e-07
-7.58838e-07
-8.10792e-07
-6.37855e-07
-3.00596e-07
7.08208e-08
3.35027e-07
3.52194e-07
7.20753e-08
-1.91974e-07
-5.04535e-07
-7.54679e-07
-8.1752e-07
-6.52983e-07
-3.18365e-07
5.71233e-08
3.31205e-07
3.5812e-07
9.06572e-08
-1.73675e-07
-4.89553e-07
-7.48575e-07
-8.22813e-07
-6.67733e-07
-3.36955e-07
4.17093e-08
3.25384e-07
3.62292e-07
1.08161e-07
-1.54898e-07
-4.73034e-07
-7.40455e-07
-8.26377e-07
-6.81697e-07
-3.55999e-07
2.47701e-08
3.17481e-07
3.64428e-07
1.24207e-07
-1.3604e-07
-4.55215e-07
-7.30301e-07
-8.27949e-07
-6.94465e-07
-3.75091e-07
6.55434e-09
3.07471e-07
3.64291e-07
1.384e-07
-1.17532e-07
-4.36389e-07
-7.18158e-07
-8.27308e-07
-7.05632e-07
-3.93796e-07
-1.26323e-08
2.95393e-07
3.61701e-07
1.5036e-07
-9.98269e-08
-4.16905e-07
-7.04139e-07
-8.24289e-07
-7.1482e-07
-4.11658e-07
-3.24282e-08
2.81361e-07
3.56559e-07
1.59746e-07
-8.33863e-08
-3.97168e-07
-6.88439e-07
-8.18801e-07
-7.21686e-07
-4.28213e-07
-5.24175e-08
2.65571e-07
3.48856e-07
1.66276e-07
-6.867e-08
-3.77637e-07
-6.71341e-07
-8.10845e-07
-7.25951e-07
-4.43003e-07
-7.2133e-08
2.48314e-07
3.38703e-07
1.69748e-07
-5.61182e-08
-3.58821e-07
-6.53226e-07
-8.00533e-07
-7.27417e-07
-4.55589e-07
-9.10609e-08
2.29983e-07
3.26346e-07
1.70067e-07
-4.61296e-08
-3.41267e-07
-6.34585e-07
-7.8811e-07
-7.25998e-07
-4.65584e-07
-1.08649e-07
2.11087e-07
3.12203e-07
1.67275e-07
-3.9036e-08
-3.25551e-07
-6.1603e-07
-7.73986e-07
-7.21746e-07
-4.72666e-07
-1.24319e-07
1.92258e-07
2.969e-07
1.61568e-07
-3.50923e-08
-3.12273e-07
-5.98293e-07
-7.58776e-07
-7.14875e-07
-4.76598e-07
-1.37469e-07
1.74264e-07
2.81311e-07
1.53306e-07
-3.45171e-08
-3.02115e-07
-5.82286e-07
-7.43335e-07
-7.05791e-07
-4.77199e-07
-1.47408e-07
1.58082e-07
2.66644e-07
1.43163e-07
-3.74642e-08
-2.95955e-07
-5.69294e-07
-7.2883e-07
-6.9525e-07
-4.74386e-07
-1.53258e-07
1.45118e-07
2.549e-07
1.32575e-07
-4.34681e-08
-2.94561e-07
-5.61031e-07
-7.17145e-07
-6.84765e-07
-4.68702e-07
-1.54308e-07
1.3723e-07
2.49406e-07
1.25389e-07
-4.93175e-08
-2.96664e-07
-5.58743e-07
-7.11789e-07
-6.77646e-07
-4.62947e-07
-1.51943e-07
1.35145e-07
2.05709e-07
-6.27063e-08
-3.42133e-07
-5.7747e-07
-7.10669e-07
-6.70119e-07
-4.58339e-07
-1.52157e-07
1.31591e-07
2.88161e-07
2.03515e-07
-6.386e-08
-3.42103e-07
-5.76149e-07
-7.08629e-07
-6.67962e-07
-4.57029e-07
-1.52181e-07
1.30266e-07
2.85968e-07
2.00406e-07
-6.44063e-08
-3.40465e-07
-5.72677e-07
-7.04301e-07
-6.64874e-07
-4.56089e-07
-1.53777e-07
1.26731e-07
2.81406e-07
1.97481e-07
-6.3756e-08
-3.37125e-07
-5.67675e-07
-6.99529e-07
-6.62057e-07
-4.56357e-07
-1.57043e-07
1.21739e-07
2.76178e-07
1.95208e-07
-6.19731e-08
-3.32563e-07
-5.61875e-07
-6.9467e-07
-6.59934e-07
-4.57831e-07
-1.61526e-07
1.15989e-07
2.70884e-07
1.93781e-07
-5.9236e-08
-3.27211e-07
-5.55794e-07
-6.90135e-07
-6.58676e-07
-4.60342e-07
-1.66809e-07
1.09979e-07
2.65946e-07
1.93271e-07
-5.57037e-08
-3.21393e-07
-5.4979e-07
-6.86208e-07
-6.58341e-07
-4.63723e-07
-1.72573e-07
1.04058e-07
2.61642e-07
1.9368e-07
-5.15269e-08
-3.15368e-07
-5.44132e-07
-6.83067e-07
-6.58934e-07
-4.67814e-07
-1.78557e-07
9.84889e-08
2.58145e-07
1.94965e-07
-4.68611e-08
-3.09357e-07
-5.39016e-07
-6.80808e-07
-6.60411e-07
-4.72448e-07
-1.84534e-07
9.34693e-08
2.55541e-07
1.97046e-07
-4.18639e-08
-3.03545e-07
-5.34585e-07
-6.79471e-07
-6.62692e-07
-4.77459e-07
-1.90317e-07
8.91374e-08
2.53859e-07
1.99818e-07
-3.66878e-08
-2.98082e-07
-5.30927e-07
-6.79045e-07
-6.65672e-07
-4.82687e-07
-1.95752e-07
8.55792e-08
2.53083e-07
2.03161e-07
-3.14756e-08
-2.93085e-07
-5.28088e-07
-6.79483e-07
-6.6923e-07
-4.87984e-07
-2.00722e-07
8.28361e-08
2.53162e-07
2.06948e-07
-2.6357e-08
-2.8864e-07
-5.26074e-07
-6.80709e-07
-6.73237e-07
-4.93217e-07
-2.05142e-07
8.09124e-08
2.54021e-07
2.11053e-07
-2.14464e-08
-2.84805e-07
-5.24861e-07
-6.82625e-07
-6.77559e-07
-4.9827e-07
-2.08958e-07
7.97812e-08
2.55566e-07
2.15352e-07
-1.68417e-08
-2.8161e-07
-5.24402e-07
-6.85123e-07
-6.82069e-07
-5.03047e-07
-2.12142e-07
7.9391e-08
2.57691e-07
2.19729e-07
-1.26234e-08
-2.79065e-07
-5.24628e-07
-6.88083e-07
-6.86645e-07
-5.0747e-07
-2.1469e-07
7.96702e-08
2.60284e-07
2.24081e-07
-8.85428e-09
-2.77157e-07
-5.25456e-07
-6.91383e-07
-6.91174e-07
-5.1148e-07
-2.16621e-07
8.05321e-08
2.63235e-07
2.28318e-07
-5.57924e-09
-2.75857e-07
-5.26791e-07
-6.94903e-07
-6.95558e-07
-5.1504e-07
-2.17973e-07
8.18786e-08
2.66432e-07
2.32361e-07
-2.82564e-09
-2.75118e-07
-5.28531e-07
-6.98525e-07
-6.99711e-07
-5.1813e-07
-2.18798e-07
8.36036e-08
2.6977e-07
2.36148e-07
-6.04125e-10
-2.7488e-07
-5.30568e-07
-7.02136e-07
-7.03561e-07
-5.20748e-07
-2.19165e-07
8.55959e-08
2.7315e-07
2.39628e-07
1.09027e-09
-2.7507e-07
-5.32791e-07
-7.05632e-07
-7.07052e-07
-5.22907e-07
-2.19152e-07
8.77431e-08
2.76476e-07
2.42763e-07
2.2765e-09
-2.75612e-07
-5.35092e-07
-7.08919e-07
-7.10139e-07
-5.24631e-07
-2.18841e-07
8.99361e-08
2.79663e-07
2.45523e-07
2.98546e-09
-2.76422e-07
-5.3737e-07
-7.11914e-07
-7.12793e-07
-5.25953e-07
-2.18316e-07
9.20759e-08
2.82632e-07
2.47889e-07
3.25683e-09
-2.77425e-07
-5.39541e-07
-7.14559e-07
-7.15002e-07
-5.26911e-07
-2.17648e-07
9.40822e-08
2.85319e-07
2.49858e-07
3.13761e-09
-2.78557e-07
-5.41547e-07
-7.16823e-07
-7.16772e-07
-5.27547e-07
-2.16895e-07
9.59052e-08
2.87686e-07
2.51449e-07
2.68311e-09
-2.7977e-07
-5.43368e-07
-7.18717e-07
-7.1814e-07
-5.27904e-07
-2.16092e-07
9.75348e-08
2.89729e-07
2.52716e-07
1.96172e-09
-2.81037e-07
-5.45025e-07
-7.20303e-07
-7.19179e-07
-5.28037e-07
-2.1525e-07
9.90071e-08
2.91492e-07
2.53759e-07
1.06375e-09
-2.82342e-07
-5.46585e-07
-7.21698e-07
-7.20011e-07
-5.28022e-07
-2.1437e-07
1.004e-07
2.93073e-07
2.54729e-07
1.12469e-10
-2.83667e-07
-5.4814e-07
-7.23068e-07
-7.20804e-07
-5.27967e-07
-2.13455e-07
1.01819e-07
2.94621e-07
2.55829e-07
-7.265e-10
-2.84972e-07
-5.49787e-07
-7.24605e-07
-7.21774e-07
-5.28024e-07
-2.12534e-07
1.03367e-07
2.96319e-07
2.57297e-07
-1.2422e-09
-2.86169e-07
-5.51591e-07
-7.26501e-07
-7.23163e-07
-5.28391e-07
-2.11689e-07
1.05113e-07
2.98352e-07
2.59383e-07
-1.18537e-09
-2.87114e-07
-5.53561e-07
-7.28911e-07
-7.25213e-07
-5.2931e-07
-2.11068e-07
1.07058e-07
3.00877e-07
2.62316e-07
-2.86136e-10
-2.87598e-07
-5.55619e-07
-7.31919e-07
-7.2814e-07
-5.31045e-07
-2.10885e-07
1.09116e-07
3.03987e-07
2.66276e-07
1.72085e-09
-2.87366e-07
-5.57606e-07
-7.35521e-07
-7.32098e-07
-5.33856e-07
-2.1141e-07
1.11111e-07
3.07689e-07
2.71369e-07
5.06918e-09
-2.86136e-07
-5.59285e-07
-7.39619e-07
-7.3717e-07
-5.37975e-07
-2.12939e-07
1.12789e-07
3.11903e-07
2.77618e-07
9.93738e-09
-2.83629e-07
-5.60376e-07
-7.44037e-07
-7.43352e-07
-5.43578e-07
-2.15765e-07
1.13851e-07
3.16465e-07
2.84958e-07
1.64336e-08
-2.79602e-07
-5.60578e-07
-7.48534e-07
-7.50559e-07
-5.5077e-07
-2.20146e-07
1.13982e-07
3.21149e-07
2.93251e-07
2.45896e-08
-2.73861e-07
-5.59603e-07
-7.52837e-07
-7.58639e-07
-5.59578e-07
-2.26278e-07
1.12884e-07
3.2569e-07
3.02293e-07
3.43622e-08
-2.66284e-07
-5.57199e-07
-7.56659e-07
-7.6738e-07
-5.69948e-07
-2.3429e-07
1.10297e-07
3.29802e-07
3.1183e-07
4.56393e-08
-2.56818e-07
-5.5316e-07
-7.59718e-07
-7.7653e-07
-5.81755e-07
-2.44228e-07
1.06016e-07
3.33197e-07
3.21572e-07
5.82464e-08
-2.45481e-07
-5.47333e-07
-7.61744e-07
-7.85806e-07
-5.94807e-07
-2.56067e-07
9.98903e-08
3.35595e-07
3.312e-07
7.19495e-08
-2.32362e-07
-5.39621e-07
-7.62493e-07
-7.94904e-07
-6.08857e-07
-2.69709e-07
9.18326e-08
3.36735e-07
3.40384e-07
8.64593e-08
-2.17611e-07
-5.29986e-07
-7.61746e-07
-8.03509e-07
-6.2361e-07
-2.84989e-07
8.18121e-08
3.36379e-07
3.4878e-07
1.01441e-07
-2.01439e-07
-5.1844e-07
-7.59313e-07
-8.11298e-07
-6.38731e-07
-3.01686e-07
6.98548e-08
3.34319e-07
3.5605e-07
1.16524e-07
-1.84111e-07
-5.05053e-07
-7.5504e-07
-8.1795e-07
-6.53853e-07
-3.19522e-07
5.6043e-08
3.30381e-07
3.6186e-07
1.31315e-07
-1.6594e-07
-4.8995e-07
-7.48814e-07
-8.23153e-07
-6.68583e-07
-3.38171e-07
4.05144e-08
3.24437e-07
3.65901e-07
1.454e-07
-1.47289e-07
-4.73313e-07
-7.40565e-07
-8.26615e-07
-6.82513e-07
-3.57265e-07
2.34628e-08
3.16404e-07
3.67893e-07
1.58361e-07
-1.28557e-07
-4.55379e-07
-7.30278e-07
-8.28073e-07
-6.95233e-07
-3.76394e-07
5.14e-09
3.06261e-07
3.67599e-07
1.69783e-07
-1.10175e-07
-4.36445e-07
-7.18e-07
-8.27308e-07
-7.06337e-07
-3.95122e-07
-1.41459e-08
2.94047e-07
3.64846e-07
1.79276e-07
-9.2597e-08
-4.16864e-07
-7.03848e-07
-8.24156e-07
-7.15446e-07
-4.12992e-07
-3.40304e-08
2.7988e-07
3.59534e-07
1.86485e-07
-7.62878e-08
-3.97043e-07
-6.88018e-07
-8.18529e-07
-7.2222e-07
-4.29538e-07
-5.40952e-08
2.6396e-07
3.5166e-07
1.91116e-07
-6.17079e-08
-3.77444e-07
-6.70798e-07
-8.10431e-07
-7.2638e-07
-4.44301e-07
-7.38708e-08
2.4658e-07
3.41339e-07
1.92955e-07
-4.92978e-08
-3.58578e-07
-6.52573e-07
-7.99977e-07
-7.27731e-07
-4.56844e-07
-9.28414e-08
2.28138e-07
3.28822e-07
1.91898e-07
-3.94558e-08
-3.40993e-07
-6.33835e-07
-7.87416e-07
-7.26189e-07
-4.66779e-07
-1.10453e-07
2.09145e-07
3.14531e-07
1.87978e-07
-3.25117e-08
-3.25268e-07
-6.152e-07
-7.73162e-07
-7.2181e-07
-4.73787e-07
-1.26128e-07
1.90236e-07
2.99099e-07
1.8138e-07
-2.87177e-08
-3.12003e-07
-5.97404e-07
-7.57836e-07
-7.14813e-07
-4.77635e-07
-1.39264e-07
1.72181e-07
2.83403e-07
1.72455e-07
-2.82876e-08
-3.01878e-07
-5.81361e-07
-7.42297e-07
-7.05611e-07
-4.78144e-07
-1.4917e-07
1.55961e-07
2.68643e-07
1.61862e-07
-3.13678e-08
-2.9577e-07
-5.6836e-07
-7.27706e-07
-6.9497e-07
-4.75242e-07
-1.54972e-07
1.42987e-07
2.56874e-07
1.51015e-07
-3.74793e-08
-2.9444e-07
-5.60117e-07
-7.1599e-07
-6.84415e-07
-4.69482e-07
-1.55966e-07
1.35117e-07
2.51383e-07
1.43726e-07
-4.33855e-08
-2.96593e-07
-5.57858e-07
-7.10635e-07
-6.77268e-07
-4.63686e-07
-1.53559e-07
1.33062e-07
2.10325e-07
-4.87543e-08
-3.36695e-07
-5.77667e-07
-7.11424e-07
-6.70915e-07
-4.58926e-07
-1.52425e-07
1.31633e-07
2.88975e-07
2.08119e-07
-4.9907e-08
-3.3667e-07
-5.7634e-07
-7.09371e-07
-6.68742e-07
-4.57603e-07
-1.52443e-07
1.30306e-07
2.86772e-07
2.04991e-07
-5.04277e-08
-3.35027e-07
-5.72849e-07
-7.05033e-07
-6.65631e-07
-4.5665e-07
-1.5404e-07
1.26754e-07
2.82189e-07
2.02053e-07
-4.9717e-08
-3.31668e-07
-5.67818e-07
-7.00227e-07
-6.6279e-07
-4.56912e-07
-1.5732e-07
1.21735e-07
2.76929e-07
1.99773e-07
-4.78363e-08
-3.27072e-07
-5.61981e-07
-6.95332e-07
-6.60647e-07
-4.58388e-07
-1.61826e-07
1.1595e-07
2.716e-07
1.98348e-07
-4.49628e-08
-3.21676e-07
-5.55859e-07
-6.90761e-07
-6.59374e-07
-4.60908e-07
-1.67138e-07
1.09901e-07
2.66627e-07
1.9785e-07
-4.12553e-08
-3.15803e-07
-5.49813e-07
-6.86801e-07
-6.59029e-07
-4.64305e-07
-1.72936e-07
1.03938e-07
2.62291e-07
1.98282e-07
-3.68653e-08
-3.09715e-07
-5.44111e-07
-6.8363e-07
-6.59618e-07
-4.68417e-07
-1.78958e-07
9.83274e-08
2.58764e-07
1.99599e-07
-3.19495e-08
-3.03634e-07
-5.38953e-07
-6.81346e-07
-6.61096e-07
-4.73079e-07
-1.84977e-07
9.32668e-08
2.56135e-07
2.01722e-07
-2.66668e-08
-2.97745e-07
-5.34482e-07
-6.79988e-07
-6.63385e-07
-4.78121e-07
-1.90803e-07
8.88958e-08
2.54432e-07
2.04544e-07
-2.11715e-08
-2.92201e-07
-5.30788e-07
-6.79547e-07
-6.66379e-07
-4.83385e-07
-1.96281e-07
8.53013e-08
2.5364e-07
2.07946e-07
-1.56084e-08
-2.8712e-07
-5.27916e-07
-6.79975e-07
-6.69955e-07
-4.88719e-07
-2.01294e-07
8.25254e-08
2.53709e-07
2.11799e-07
-1.0109e-08
-2.82589e-07
-5.25873e-07
-6.81195e-07
-6.73982e-07
-4.93992e-07
-2.05756e-07
8.05727e-08
2.54562e-07
2.15976e-07
-4.78963e-09
-2.78665e-07
-5.24636e-07
-6.83112e-07
-6.7833e-07
-4.99085e-07
-2.09611e-07
7.94167e-08
2.56105e-07
2.20352e-07
2.49925e-10
-2.75381e-07
-5.24156e-07
-6.85613e-07
-6.82867e-07
-5.03901e-07
-2.12831e-07
7.90057e-08
2.58233e-07
2.2481e-07
4.92735e-09
-2.72745e-07
-5.24365e-07
-6.88581e-07
-6.87471e-07
-5.08362e-07
-2.15412e-07
7.92682e-08
2.60833e-07
2.29246e-07
9.1783e-09
-2.70748e-07
-5.2518e-07
-6.91892e-07
-6.9203e-07
-5.12409e-07
-2.17372e-07
8.01173e-08
2.63792e-07
2.33567e-07
1.29564e-08
-2.69358e-07
-5.26506e-07
-6.95424e-07
-6.96443e-07
-5.16003e-07
-2.1875e-07
8.14545e-08
2.67e-07
2.37696e-07
1.6233e-08
-2.6853e-07
-5.2824e-07
-6.9906e-07
-7.00624e-07
-5.19125e-07
-2.19597e-07
8.31731e-08
2.70351e-07
2.41569e-07
1.89967e-08
-2.68203e-07
-5.30273e-07
-7.02686e-07
-7.04501e-07
-5.21771e-07
-2.19983e-07
8.51618e-08
2.73744e-07
2.45135e-07
2.12518e-08
-2.68305e-07
-5.32494e-07
-7.06197e-07
-7.08016e-07
-5.23954e-07
-2.19985e-07
8.73075e-08
2.77083e-07
2.48353e-07
2.30169e-08
-2.68759e-07
-5.34795e-07
-7.09498e-07
-7.11125e-07
-5.25699e-07
-2.19687e-07
8.95006e-08
2.80282e-07
2.51194e-07
2.43221e-08
-2.69482e-07
-5.37075e-07
-7.12506e-07
-7.13799e-07
-5.27039e-07
-2.19171e-07
9.16413e-08
2.83262e-07
2.53638e-07
2.52065e-08
-2.70397e-07
-5.39247e-07
-7.15163e-07
-7.16023e-07
-5.28011e-07
-2.1851e-07
9.3649e-08
2.85958e-07
2.55683e-07
2.57163e-08
-2.7144e-07
-5.41254e-07
-7.17436e-07
-7.17806e-07
-5.28657e-07
-2.17762e-07
9.54732e-08
2.88332e-07
2.57347e-07
2.59057e-08
-2.72564e-07
-5.43074e-07
-7.19337e-07
-7.19183e-07
-5.29022e-07
-2.16962e-07
9.71034e-08
2.9038e-07
2.58684e-07
2.58411e-08
-2.7374e-07
-5.44731e-07
-7.20928e-07
-7.20228e-07
-5.29161e-07
-2.16124e-07
9.85754e-08
2.92145e-07
2.59794e-07
2.561e-08
-2.74953e-07
-5.46288e-07
-7.22325e-07
-7.21064e-07
-5.2915e-07
-2.15246e-07
9.99671e-08
2.93726e-07
2.60828e-07
2.53318e-08
-2.76186e-07
-5.47839e-07
-7.23695e-07
-7.21859e-07
-5.29098e-07
-2.14334e-07
1.01383e-07
2.95272e-07
2.61991e-07
2.51671e-08
-2.77396e-07
-5.4948e-07
-7.25231e-07
-7.22831e-07
-5.29158e-07
-2.13417e-07
1.02927e-07
2.96966e-07
2.63519e-07
2.53206e-08
-2.78498e-07
-5.51278e-07
-7.27126e-07
-7.24221e-07
-5.29529e-07
-2.12578e-07
1.04667e-07
2.98995e-07
2.65663e-07
2.60347e-08
-2.79347e-07
-5.53238e-07
-7.29533e-07
-7.26272e-07
-5.30453e-07
-2.11963e-07
1.06605e-07
3.01515e-07
2.68651e-07
2.75715e-08
-2.79736e-07
-5.55286e-07
-7.32537e-07
-7.292e-07
-5.32194e-07
-2.11789e-07
1.08655e-07
3.04619e-07
2.72664e-07
3.01882e-08
-2.79409e-07
-5.5726e-07
-7.36134e-07
-7.33161e-07
-5.35012e-07
-2.12325e-07
1.10639e-07
3.08315e-07
2.77807e-07
3.41096e-08
-2.78086e-07
-5.58926e-07
-7.40227e-07
-7.38235e-07
-5.3914e-07
-2.13867e-07
1.12304e-07
3.12522e-07
2.84102e-07
3.95055e-08
-2.7549e-07
-5.6e-07
-7.44638e-07
-7.44419e-07
-5.44754e-07
-2.16709e-07
1.13352e-07
3.17076e-07
2.91484e-07
4.64746e-08
-2.71377e-07
-5.60183e-07
-7.49126e-07
-7.51628e-07
-5.51958e-07
-2.21106e-07
1.13466e-07
3.21751e-07
2.99813e-07
5.50388e-08
-2.65556e-07
-5.59189e-07
-7.53418e-07
-7.59708e-07
-5.60778e-07
-2.27259e-07
1.12348e-07
3.2628e-07
3.08886e-07
6.51445e-08
-2.57905e-07
-5.56762e-07
-7.57227e-07
-7.68449e-07
-5.71162e-07
-2.35292e-07
1.09738e-07
3.30378e-07
3.18448e-07
7.66685e-08
-2.48372e-07
-5.52698e-07
-7.60268e-07
-7.77596e-07
-5.82981e-07
-2.45254e-07
1.05431e-07
3.33757e-07
3.28207e-07
8.94262e-08
-2.36978e-07
-5.46844e-07
-7.62275e-07
-7.86867e-07
-5.96045e-07
-2.57118e-07
9.92775e-08
3.36135e-07
3.37847e-07
1.03181e-07
-2.23811e-07
-5.39104e-07
-7.63002e-07
-7.95959e-07
-6.10106e-07
-2.70786e-07
9.1189e-08
3.37253e-07
3.47034e-07
1.1765e-07
-2.09021e-07
-5.29438e-07
-7.62229e-07
-8.04553e-07
-6.24869e-07
-2.86093e-07
8.11354e-08
3.36871e-07
3.55428e-07
1.32513e-07
-1.92818e-07
-5.17861e-07
-7.59767e-07
-8.12329e-07
-6.39998e-07
-3.02816e-07
6.91433e-08
3.34783e-07
3.62688e-07
1.47413e-07
-1.75467e-07
-5.04442e-07
-7.55463e-07
-8.18964e-07
-6.55126e-07
-3.20678e-07
5.52953e-08
3.30815e-07
3.68482e-07
1.6197e-07
-1.5728e-07
-4.89307e-07
-7.49203e-07
-8.24148e-07
-6.69858e-07
-3.39353e-07
3.97297e-08
3.24837e-07
3.72501e-07
1.75783e-07
-1.38619e-07
-4.72637e-07
-7.40918e-07
-8.27587e-07
-6.83789e-07
-3.58469e-07
2.2641e-08
3.1677e-07
3.74464e-07
1.88446e-07
-1.19882e-07
-4.54672e-07
-7.30594e-07
-8.29019e-07
-6.96504e-07
-3.77619e-07
4.28146e-09
3.0659e-07
3.74138e-07
1.99555e-07
-1.015e-07
-4.35708e-07
-7.18278e-07
-8.28224e-07
-7.07601e-07
-3.96366e-07
-1.50399e-08
2.94339e-07
3.71346e-07
2.08727e-07
-8.39275e-08
-4.16099e-07
-7.04087e-07
-8.2504e-07
-7.16699e-07
-4.1425e-07
-3.4958e-08
2.80135e-07
3.65993e-07
2.15619e-07
-6.76275e-08
-3.96252e-07
-6.8822e-07
-8.19379e-07
-7.23458e-07
-4.30807e-07
-5.50536e-08
2.64177e-07
3.58076e-07
2.19943e-07
-5.30605e-08
-3.76632e-07
-6.70962e-07
-8.11245e-07
-7.276e-07
-4.45576e-07
-7.48567e-08
2.46761e-07
3.47709e-07
2.21492e-07
-4.06668e-08
-3.57748e-07