/*--------------------------------*- C++ -*----------------------------------*\
| =========                 |                                                 |
| \\      /  F ield         | OpenFOAM: The Open Source CFD Toolbox           |
|  \\    /   O peration     | Version:  2.3.0                                 |
|   \\  /    A nd           | Web:      www.OpenFOAM.org                      |
|    \\/     M anipulation  |                                                 |
\*---------------------------------------------------------------------------*/
FoamFile
{
    version     2.0;
    format      ascii;
    class       surfaceScalarField;
    location    "400";
    object      phi;
}
// * * * * * * * * * * * * * * * * * * * * * * * * * * * * * * * * * * * * * //

dimensions      [0 3 -1 0 0 0 0];

internalField   nonuniform List<scalar> 
16700
(
0.0203274
-5.80127e-08
5.8333e-11
0.0203276
-1.51024e-07
1.87569e-10
0.0203278
-1.68853e-07
4.86017e-11
0.0203279
-1.26295e-07
-1.44702e-10
0.0203279
-3.99572e-08
-6.15962e-11
0.0203279
6.30096e-08
7.87354e-11
0.0203277
1.43108e-07
9.31756e-11
0.0203276
1.67762e-07
-2.53671e-11
0.0203274
1.23936e-07
-1.46201e-10
4.70296e-08
-1.64458e-10
0.0240537
-1.52813e-07
5.37962e-11
0.0240539
-2.91842e-07
1.05259e-10
0.024054
-2.92416e-07
3.0694e-11
0.0240541
-1.88569e-07
-1.55725e-10
0.024054
-2.27313e-08
-9.2031e-11
0.0240539
1.54292e-07
3.86854e-11
0.0240538
2.77927e-07
7.75072e-11
0.0240537
2.94824e-07
-1.36477e-11
0.0240536
1.90361e-07
-1.21775e-10
3.20353e-08
-1.39793e-10
0.026058
-2.66781e-07
6.92239e-11
0.0260581
-4.06858e-07
7.62208e-11
0.0260582
-3.62623e-07
4.73487e-11
0.0260582
-1.89474e-07
-1.40665e-10
0.0260581
4.39713e-08
-1.1231e-10
0.026058
2.64931e-07
-4.25021e-12
0.0260579
3.92604e-07
4.53896e-11
0.0260578
3.69356e-07
-1.67296e-11
0.0260578
1.9321e-07
-9.98983e-11
-3.70664e-08
-1.07874e-10
0.0274257
-3.81701e-07
9.20046e-11
0.0274258
-4.92441e-07
7.19663e-11
0.0274258
-3.87481e-07
7.2622e-11
0.0274257
-1.46476e-07
-1.20254e-10
0.0274256
1.37805e-07
-1.26641e-10
0.0274255
3.75837e-07
-3.51817e-11
0.0274254
4.79922e-07
8.1511e-12
0.0274254
3.99305e-07
-2.57525e-11
0.0274255
1.51864e-07
-8.2131e-11
-1.35261e-07
-7.42764e-11
0.0284634
-4.87014e-07
1.16134e-10
0.0284635
-5.4895e-07
7.98062e-11
0.0284634
-3.76078e-07
9.72859e-11
0.0284634
-7.39159e-08
-1.00803e-10
0.0284633
2.43876e-07
-1.37601e-10
0.0284632
4.77e-07
-6.7688e-11
0.0284631
5.38898e-07
-2.05895e-11
0.0284631
3.93133e-07
-3.62285e-11
0.0284632
8.07458e-08
-6.73994e-11
-2.46262e-07
-4.28112e-11
0.0293009
-5.76476e-07
1.38534e-10
0.029301
-5.78298e-07
9.25156e-11
0.0293009
-3.36836e-07
1.18596e-10
0.0293008
1.66639e-08
-8.44565e-11
0.0293007
3.51585e-07
-1.46267e-10
0.0293006
5.6268e-07
-9.65909e-11
0.0293006
5.70938e-07
-4.86292e-11
0.0293007
3.58807e-07
-4.61859e-11
0.0293007
-8.76384e-09
-5.49477e-11
-3.58812e-07
-1.76642e-11
0.0300041
-6.46584e-07
1.57495e-10
0.0300041
-5.83257e-07
1.05607e-10
0.0300041
-2.77328e-07
1.35467e-10
0.030004
1.15915e-07
-7.14434e-11
0.0300039
4.53212e-07
-1.53056e-10
0.0300038
6.29656e-07
-1.20471e-10
0.0300038
5.78587e-07
-7.2396e-11
0.0300039
3.03641e-07
-5.44564e-11
0.030004
-1.07415e-07
-4.38602e-11
-4.64876e-07
-2.87406e-13
0.0306106
-6.9573e-07
1.72095e-10
0.0306106
-5.67093e-07
1.1654e-10
0.0306105
-2.04277e-07
1.47705e-10
0.0306104
2.1629e-07
-6.16833e-11
0.0306103
5.43171e-07
-1.5799e-10
0.0306103
6.76413e-07
-1.38961e-10
0.0306103
5.64996e-07
-9.09945e-11
0.0306104
2.34257e-07
-6.05448e-11
0.0306105
-2.07653e-07
-3.47158e-11
-5.58746e-07
1.5627e-11
0.0311437
-7.23671e-07
1.81866e-10
0.0311437
-5.33306e-07
1.24041e-10
0.0311436
-1.23549e-07
1.55495e-10
0.0311435
3.11806e-07
-5.46505e-11
0.0311434
6.17584e-07
-1.60933e-10
0.0311434
7.02659e-07
-1.52026e-10
0.0311434
5.33598e-07
-1.04276e-10
0.0311435
1.56523e-07
-6.42896e-11
0.0311436
-3.03415e-07
-2.6702e-11
-6.36516e-07
2.84746e-11
0.031619
-7.31149e-07
1.86639e-10
0.0316189
-4.85433e-07
1.27603e-10
0.0316188
-4.01328e-08
1.59274e-10
0.0316188
3.97879e-07
-4.96799e-11
0.0316187
6.7398e-07
-1.61689e-10
0.0316187
7.09e-07
-1.59787e-10
0.0316187
4.87876e-07
-1.12382e-10
0.0316188
7.5499e-08
-6.57733e-11
0.0316189
-3.89985e-07
-1.98904e-11
-6.95733e-07
3.7356e-11
0.032047
-7.19608e-07
1.86458e-10
0.0320469
-4.26889e-07
1.27179e-10
0.0320469
4.18522e-08
1.59621e-10
0.0320468
4.71192e-07
-4.60804e-11
0.0320467
7.11074e-07
-1.6007e-10
0.0320468
6.96699e-07
-1.62466e-10
0.0320468
4.31203e-07
-1.1563e-10
0.0320469
-4.59213e-09
-6.51903e-11
0.032047
-4.63885e-07
-1.5402e-11
-7.35148e-07
4.20604e-11
0.0324354
-6.90976e-07
1.81522e-10
0.0324354
-3.60851e-07
1.23006e-10
0.0324353
1.19152e-07
1.5721e-10
0.0324352
5.29565e-07
-4.32026e-11
0.0324352
7.28562e-07
-1.55933e-10
0.0324352
6.67474e-07
-1.60368e-10
0.0324353
3.66709e-07
-1.14451e-10
0.0324354
-8.03713e-08
-6.28555e-11
0.0324354
-5.22764e-07
-1.25209e-11
-7.54506e-07
4.2596e-11
0.0327898
-6.4749e-07
1.72153e-10
0.0327898
-2.90162e-07
1.155e-10
0.0327897
1.89352e-07
1.52674e-10
0.0327896
5.71843e-07
-4.0483e-11
0.0327896
7.26962e-07
-1.49204e-10
0.0327897
6.23346e-07
-1.53868e-10
0.0327898
2.97197e-07
-1.09355e-10
0.0327898
-1.49291e-07
-5.91354e-11
0.0327899
-5.65293e-07
-1.13671e-11
-7.54379e-07
3.9091e-11
0.0331144
-5.91554e-07
1.58769e-10
0.0331143
-2.17266e-07
1.05191e-10
0.0331142
2.50846e-07
1.46637e-10
0.0331142
5.9778e-07
-3.74499e-11
0.0331142
7.07459e-07
-1.3989e-10
0.0331143
5.66513e-07
-1.434e-10
0.0331144
2.25085e-07
-1.00897e-10
0.0331144
-2.09609e-07
-5.44176e-11
0.0331144
-5.91064e-07
-1.20326e-11
-7.36015e-07
3.17649e-11
0.0334122
-5.25627e-07
1.41858e-10
0.0334121
-1.44162e-07
9.26389e-11
0.033412
3.02795e-07
1.39676e-10
0.033412
6.07937e-07
-3.37311e-11
0.0334121
6.71782e-07
-1.28076e-10
0.0334121
4.99244e-07
-1.29448e-10
0.0334122
1.52361e-07
-8.9659e-11
0.0334122
-2.60355e-07
-4.90858e-11
0.0334123
-6.00497e-07
-1.45695e-11
-7.01218e-07
2.09232e-11
0.0336855
-4.52137e-07
1.2196e-10
0.0336855
-7.23832e-08
7.83301e-11
0.0336854
3.4508e-07
1.32309e-10
0.0336854
6.03585e-07
-2.90568e-11
0.0336855
6.22102e-07
-1.13932e-10
0.0336855
4.23807e-07
-1.12534e-10
0.0336856
8.05632e-08
-7.62274e-11
0.0336857
-3.01289e-07
-4.34985e-11
0.0336857
-5.94756e-07
-1.95931e-11
-6.52236e-07
6.99065e-12
0.0339363
-3.73411e-07
9.96516e-11
0.0339362
-2.98379e-09
6.27627e-11
0.0339362
3.78253e-07
1.24982e-10
0.0339362
5.86625e-07
-2.32577e-11
0.0339362
5.60947e-07
-9.76972e-11
0.0339363
3.42421e-07
-9.32045e-11
0.0339364
1.07776e-08
-6.11743e-11
0.0339364
-3.32862e-07
-3.79754e-11
0.0339364
-5.75682e-07
-2.58436e-11
-5.91684e-07
-8.99184e-12
0.0341656
-2.91637e-07
7.55248e-11
0.0341656
6.3443e-08
4.63524e-11
0.0341655
4.03488e-07
1.18061e-10
0.0341656
5.59523e-07
-1.62573e-11
0.0341656
4.91147e-07
-7.96799e-11
0.0341657
2.57224e-07
-7.20196e-11
0.0341658
-5.63532e-08
-4.50411e-11
0.0341658
-3.56172e-07
-3.2778e-11
0.0341658
-5.45731e-07
-3.38104e-11
-5.22474e-07
-2.84088e-11
0.0343746
-2.08853e-07
5.01673e-11
0.0343746
1.26731e-07
2.92522e-11
0.0343746
4.22511e-07
1.11821e-10
0.0343746
5.25246e-07
-8.04886e-12
0.0343747
4.158e-07
-6.02392e-11
0.0343748
1.70276e-07
-4.95355e-11
0.0343748
-1.20595e-07
-2.83242e-11
0.0343748
-3.72907e-07
-2.80952e-11
0.0343748
-5.07925e-07
-4.32397e-11
-4.47775e-07
-5.03332e-11
0.034564
-1.26966e-07
2.41366e-11
0.0345639
1.87071e-07
1.08267e-11
0.0345639
4.37529e-07
1.06437e-10
0.0345639
4.87211e-07
1.45237e-12
0.034564
3.38258e-07
-3.9771e-11
0.0345641
8.3589e-08
-2.62988e-11
0.0345641
-1.82059e-07
-1.14836e-11
0.0345642
-3.85281e-07
-2.4038e-11
0.0345641
-4.65803e-07
-5.39043e-11
-3.70994e-07
-7.31585e-11
0.0347341
-4.78155e-08
-2.09466e-12
0.034734
2.44901e-07
-7.08781e-12
0.034734
4.51121e-07
1.01978e-10
0.0347341
4.49215e-07
1.2321e-11
0.0347341
2.62122e-07
-1.86893e-11
0.0347342
-8.14819e-10
-2.95307e-12
0.0347343
-2.41107e-07
4.44391e-12
0.0347343
-3.95929e-07
-2.06173e-11
0.0347342
-4.23345e-07
-6.55217e-11
-2.95754e-07
-9.66245e-11
0.0348854
2.67385e-08
-2.80618e-11
0.0348854
3.0076e-07
-2.19682e-11
0.0348854
4.66091e-07
9.83906e-11
0.0348854
4.1535e-07
2.1758e-11
0.0348855
1.91238e-07
2.59208e-12
0.0348855
-8.08231e-08
2.02411e-11
0.0348856
-2.9821e-07
2.14507e-11
0.0348856
-4.07756e-07
-1.77388e-11
0.0348856
-3.84869e-07
-7.77294e-11
-2.25893e-07
-1.20299e-10
0.0350183
9.46858e-08
-5.3235e-11
0.0350183
3.55084e-07
-3.56956e-11
0.0350183
4.85261e-07
9.5498e-11
0.0350183
3.89853e-07
3.20679e-11
0.0350183
1.29665e-07
2.36836e-11
0.0350184
-1.54138e-07
4.39764e-11
0.0350185
-3.53754e-07
3.79265e-11
0.0350185
-4.23721e-07
-1.52002e-11
0.0350185
-3.54861e-07
-9.01129e-11
-1.65424e-07
-1.43758e-10
0.0351331
1.53738e-07
-7.75738e-11
0.0351331
4.07978e-07
-4.76276e-11
0.0351331
5.11205e-07
9.29928e-11
0.0351331
3.76893e-07
4.23638e-11
0.0351331
8.15927e-08
4.4313e-11
0.0351332
-2.18187e-07
6.68241e-11
0.0351332
-4.07815e-07
5.38363e-11
0.0351333
-4.46546e-07
-1.26904e-11
0.0351332
-3.3772e-07
-1.02221e-10
-1.18472e-07
-1.66593e-10
0.0352302
2.01224e-07
-1.01084e-10
0.0352302
4.58953e-07
-5.76443e-11
0.0352301
5.45918e-07
9.04389e-11
0.0352301
3.80278e-07
5.21379e-11
0.0352302
5.11922e-08
6.41762e-11
0.0352302
-2.7007e-07
8.90369e-11
0.0352303
-4.59906e-07
6.95909e-11
0.0352303
-4.78363e-07
-9.79306e-12
0.0352303
-3.37426e-07
-1.13581e-10
-8.9129e-08
-1.88463e-10
0.0353101
2.34051e-07
-1.23797e-10
0.03531
5.06714e-07
-6.76477e-11
0.03531
5.90472e-07
8.72785e-11
0.0353099
4.03102e-07
6.09163e-11
0.0353099
4.2384e-08
8.30821e-11
0.03531
-3.06569e-07
1.1078e-10
0.03531
-5.08761e-07
8.55924e-11
0.0353101
-5.20339e-07
-5.99433e-12
0.0353101
-3.57147e-07
-1.23707e-10
-8.12386e-08
-2.09114e-10
0.0353731
2.48767e-07
-1.45921e-10
0.035373
5.48994e-07
-7.82099e-11
0.035373
6.44691e-07
8.2843e-11
0.0353729
4.47358e-07
6.82249e-11
0.0353729
5.85435e-08
1.00918e-10
0.0353729
-3.24241e-07
1.32302e-10
0.035373
-5.52176e-07
1.02354e-10
0.035373
-5.72338e-07
-6.93359e-13
0.0353731
-3.98831e-07
-1.32104e-10
-9.81122e-08
-2.28364e-10
0.0354198
2.41722e-07
-1.67775e-10
0.0354198
5.82519e-07
-8.95435e-11
0.0354197
7.0692e-07
7.63665e-11
0.0354197
5.13596e-07
7.35726e-11
0.0354196
1.02176e-07
1.1759e-10
0.0354196
-3.1959e-07
1.53935e-10
0.0354196
-5.86975e-07
1.2049e-10
0.0354197
-6.32673e-07
6.78261e-12
0.0354198
-4.62856e-07
-1.38262e-10
-1.42204e-07
-2.46097e-10
0.0354507
2.09341e-07
-1.89732e-10
0.0354507
6.03101e-07
-1.02098e-10
0.0354506
7.73919e-07
6.69955e-11
0.0354505
6.0067e-07
7.64358e-11
0.0354504
1.74609e-07
1.33045e-10
0.0354504
-2.8932e-07
1.76062e-10
0.0354504
-6.09104e-07
1.40688e-10
0.0354505
-6.98024e-07
1.71045e-11
0.0354506
-5.47787e-07
-1.41641e-10
-2.14801e-07
-2.62184e-10
0.035466
1.4845e-07
-2.12168e-10
0.035466
6.05886e-07
-1.16201e-10
0.035466
8.40946e-07
5.37785e-11
0.0354659
7.05627e-07
7.62404e-11
0.0354658
2.75749e-07
1.47186e-10
0.0354657
-2.30624e-07
1.99066e-10
0.0354657
-6.13867e-07
1.63667e-10
0.0354658
-7.63529e-07
3.13453e-11
0.0354659
-6.50311e-07
-1.41654e-10
-3.15766e-07
-2.76494e-10
0.035466
5.66326e-08
-2.35399e-10
0.0354661
5.85709e-07
-1.32789e-10
0.035466
9.02e-07
3.55644e-11
0.0354659
8.23775e-07
7.23463e-11
0.0354657
4.03939e-07
1.59827e-10
0.0354657
-1.41481e-07
2.23275e-10
0.0354656
-5.96278e-07
1.90143e-10
0.0354657
-8.23062e-07
5.00505e-11
0.0354658
-7.65339e-07
-1.37643e-10
-4.43389e-07
-2.8881e-10
0.0354507
-6.7426e-08
-2.59629e-10
0.0354507
5.37551e-07
-1.52449e-10
0.0354507
9.50229e-07
1.00479e-11
0.0354506
9.48912e-07
6.40383e-11
0.0354504
5.55935e-07
1.70665e-10
0.0354503
-2.09353e-08
2.48912e-10
0.0354502
-5.51496e-07
2.20775e-10
0.0354503
-8.69675e-07
7.41661e-11
0.0354504
-8.86301e-07
-1.28872e-10
-5.94355e-07
-2.98792e-10
0.0354198
-2.23656e-07
-2.849e-10
0.0354199
4.57034e-07
-1.75371e-10
0.0354199
9.78459e-07
-2.06685e-11
0.0354197
1.07371e-06
5.05337e-11
0.0354196
7.27011e-07
1.79255e-10
0.0354194
1.3068e-07
2.7604e-10
0.0354193
-4.75305e-07
2.56117e-10
0.0354194
-8.96156e-07
1.04529e-10
0.0354195
-1.00558e-06
-1.14531e-10
-7.63842e-07
-3.05949e-10
0.0353731
-4.10406e-07
-3.11041e-10
0.0353732
3.40902e-07
-2.01802e-10
0.0353732
9.79781e-07
-5.33473e-11
0.0353731
1.19023e-06
3.10203e-11
0.0353729
9.11177e-07
1.8499e-10
0.0353727
3.11595e-07
3.04527e-10
0.0353726
-3.64578e-07
2.96563e-10
0.0353726
-8.95638e-07
1.4192e-10
0.0353727
-1.11507e-06
-9.37575e-11
-9.45744e-07
-3.09636e-10
0.03531
-6.24362e-07
-3.37673e-10
0.0353102
1.87443e-07
-2.31733e-10
0.0353102
9.48166e-07
-9.5273e-11
0.0353101
1.29044e-06
4.84674e-12
0.0353099
1.10149e-06
1.87121e-10
0.0353097
5.18558e-07
3.34023e-10
0.0353096
-2.17674e-07
3.42297e-10
0.0353095
-8.62214e-07
1.86982e-10
0.0353096
-1.20674e-06
-6.56915e-11
-1.133e-06
-3.09071e-10
0.0352302
-8.60601e-07
-3.642e-10
0.0352304
-3.22196e-09
-2.64919e-10
0.0352304
8.78975e-07
-1.45869e-10
0.0352303
1.36684e-06
-2.87944e-11
0.0352302
1.29045e-06
1.84795e-10
0.0352299
7.46886e-07
3.63959e-10
0.0352297
-3.47273e-08
3.93253e-10
0.0352297
-7.91444e-07
2.40165e-10
0.0352297
-1.27324e-06
-2.95361e-11
-1.31795e-06
-3.03386e-10
0.035133
-1.11277e-06
-3.8985e-10
0.0351332
-2.29001e-07
-3.00736e-10
0.0351334
7.69353e-07
-2.04861e-10
0.0351333
1.41286e-06
-7.19978e-11
0.0351331
1.47035e-06
1.77122e-10
0.0351329
9.90623e-07
3.93581e-10
0.0351327
1.82227e-07
4.49098e-10
0.0351326
-6.80732e-07
3.01666e-10
0.0351326
-1.30833e-06
1.54793e-11
-1.4928e-06
-2.91698e-10
0.0350182
-1.37337e-06
-4.13734e-10
0.0350184
-4.85859e-07
-3.38563e-10
0.0350186
6.18445e-07
-2.7189e-10
0.0350186
1.42329e-06
-1.23488e-10
0.0350184
1.63367e-06
1.6325e-10
0.0350181
1.24277e-06
4.21998e-10
0.0350179
4.29278e-07
5.09233e-10
0.0350177
-5.29504e-07
3.71386e-10
0.0350177
-1.30723e-06
6.93322e-11
-1.64993e-06
-2.73191e-10
0.0348852
-1.63409e-06
-4.3493e-10
0.0348855
-7.67988e-07
-3.77701e-10
0.0348857
4.2744e-07
-3.46383e-10
0.0348857
1.39445e-06
-1.83893e-10
0.0348856
1.77337e-06
1.42443e-10
0.0348853
1.49559e-06
4.48252e-10
0.034885
7.00801e-07
5.72833e-10
0.0348848
-3.39216e-07
4.48912e-10
0.0348848
-1.26676e-06
1.3251e-10
-1.78227e-06
-2.472e-10
0.0347338
-1.88616e-06
-4.52474e-10
0.0347341
-1.06807e-06
-4.25138e-10
0.0347343
1.99472e-07
-4.27702e-10
0.0347344
1.32429e-06
-2.53146e-10
0.0347343
1.88311e-06
1.14153e-10
0.034734
1.74084e-06
4.71396e-10
0.0347337
9.89721e-07
6.38899e-10
0.0347335
-1.13227e-07
5.33537e-10
0.0347334
-1.18541e-06
2.0483e-10
-1.88351e-06
-2.13278e-10
0.0345636
-2.12071e-06
-4.65575e-10
0.0345639
-1.37757e-06
-4.77437e-10
0.0345641
-6.05697e-08
-5.16225e-10
0.0345642
1.21237e-06
-3.3092e-10
0.0345642
1.95745e-06
7.80634e-11
0.0345639
1.97015e-06
4.9056e-10
0.0345636
1.28781e-06
7.06322e-10
0.0345634
1.43423e-07
6.24284e-10
0.0345633
-1.06327e-06
2.85745e-10
-1.94828e-06
-1.7124e-10
0.0343742
-2.32904e-06
-4.7348e-10
0.0343745
-1.68712e-06
-5.45986e-10
0.0343748
-3.46277e-07
-6.10991e-10
0.0343749
1.05981e-06
-4.16502e-10
0.0343749
1.99191e-06
3.41056e-11
0.0343747
2.1752e-06
5.05005e-10
0.0343744
1.58601e-06
7.73944e-10
0.0343741
4.24253e-07
7.19961e-10
0.0343739
-9.01918e-07
3.74427e-10
-1.9723e-06
-1.2119e-10
0.0341651
-2.50291e-06
-4.75751e-10
0.0341654
-1.98677e-06
-6.20158e-10
0.0341657
-6.49971e-07
-7.10655e-10
0.0341659
8.6921e-07
-5.09084e-10
0.0341659
1.98314e-06
-1.75035e-11
0.0341657
2.34803e-06
5.14166e-10
0.0341654
1.87472e-06
8.40623e-10
0.0341651
7.21594e-07
8.19224e-10
0.0341649
-7.04316e-07
4.69786e-10
-1.95243e-06
-6.35208e-11
0.0339356
-2.63473e-06
-4.72045e-10
0.0339359
-2.26634e-06
-7.02552e-10
0.0339362
-9.62929e-07
-8.12473e-10
0.0339365
6.44522e-07
-6.07563e-10
0.0339365
1.92897e-06
-7.62803e-11
0.0339364
2.48122e-06
5.17669e-10
0.0339361
2.14409e-06
9.05273e-10
0.0339358
1.02681e-06
9.20609e-10
0.0339356
-4.74741e-07
5.70498e-10
-1.88677e-06
1.12009e-12
0.0336849
-2.71784e-06
-4.62316e-10
0.0336851
-2.51568e-06
-7.82368e-10
0.0336854
-1.27561e-06
-9.14906e-10
0.0336857
3.9104e-07
-7.10785e-10
0.0336858
1.82852e-06
-1.4178e-10
0.0336857
2.5682e-06
5.15349e-10
0.0336854
2.38429e-06
9.66904e-10
0.0336851
1.33053e-06
1.02259e-09
0.0336849
-2.18705e-07
6.75043e-10
-1.77477e-06
7.17138e-11
0.0334114
-2.74673e-06
-4.46659e-10
0.0334116
-2.72497e-06
-8.57582e-10
0.033412
-1.57785e-06
-1.01663e-09
0.0334122
1.15324e-07
-8.17436e-10
0.0334124
1.68236e-06
-2.13053e-10
0.0334123
2.6034e-06
5.07243e-10
0.0334121
2.5858e-06
1.02465e-09
0.0334118
1.62278e-06
1.12363e-09
0.0334116
5.70815e-08
7.81741e-10
-1.61734e-06
1.46992e-10
0.0331136
-2.71729e-06
-4.25389e-10
0.0331138
-2.88497e-06
-9.26699e-10
0.0331141
-1.85907e-06
-1.11636e-09
0.0331144
-1.74831e-07
-9.26162e-10
0.0331145
1.49262e-06
-2.89095e-10
0.0331146
2.58262e-06
4.93598e-10
0.0331144
2.73968e-06
1.07777e-09
0.0331141
1.89326e-06
1.22217e-09
0.0331139
3.4473e-07
8.88789e-10
-1.41698e-06
2.25868e-10
0.0327891
-2.6271e-06
-3.99027e-10
0.0327892
-2.98738e-06
-9.88798e-10
0.0327894
-2.10851e-06
-1.21287e-09
0.0327897
-4.70425e-07
-1.03561e-09
0.03279
1.26318e-06
-3.68774e-10
0.03279
2.50326e-06
4.74859e-10
0.0327899
2.83789e-06
1.12571e-09
0.0327897
2.1315e-06
1.31671e-09
0.0327894
6.35208e-07
9.94282e-10
-1.17793e-06
3.06621e-10
0.0324347
-2.47574e-06
-3.68275e-10
0.0324347
-3.02514e-06
-1.04298e-09
0.0324349
-2.31544e-06
-1.30504e-09
0.0324352
-7.61288e-07
-1.1445e-09
0.0324355
9.99835e-07
-4.50909e-10
0.0324356
2.36468e-06
4.51677e-10
0.0324356
2.87365e-06
1.16804e-09
0.0324354
2.3271e-06
1.40579e-09
0.0324351
9.18369e-07
1.09626e-09
-9.06374e-07
3.87521e-10
0.0320463
-2.26516e-06
-3.34006e-10
0.0320463
-2.99285e-06
-1.08849e-09
0.0320464
-2.46945e-06
-1.39192e-09
0.0320467
-1.03613e-06
-1.25163e-09
0.032047
7.10493e-07
-5.3407e-10
0.0320472
2.16852e-06
4.24901e-10
0.0320472
2.84179e-06
1.20453e-09
0.0320471
2.47002e-06
1.48802e-09
0.0320468
1.18301e-06
1.1927e-09
-6.10591e-07
4.667e-10
0.0316183
-2.00007e-06
-2.97232e-10
0.0316182
-2.8872e-06
-1.12457e-09
0.0316183
-2.56073e-06
-1.4727e-09
0.0316186
-1.28264e-06
-1.35589e-09
0.0316189
4.05344e-07
-6.16866e-10
0.0316191
1.91909e-06
3.95574e-10
0.0316192
2.73917e-06
1.23508e-09
0.0316191
2.55085e-06
1.56206e-09
0.0316189
1.41696e-06
1.28157e-09
-3.01156e-07
5.4217e-10
0.0311432
-1.68831e-06
-2.59076e-10
0.031143
-2.70738e-06
-1.15038e-09
0.031143
-2.58047e-06
-1.54673e-09
0.0311432
-1.48757e-06
-1.45631e-09
0.0311435
9.70369e-08
-6.97813e-10
0.0311438
1.62375e-06
3.64924e-10
0.031144
2.56521e-06
1.25975e-09
0.031144
2.56123e-06
1.62665e-09
0.0311438
1.60719e-06
1.3608e-09
8.88834e-09
6.11876e-10
0.0306102
-1.34132e-06
-2.2072e-10
0.0306099
-2.45565e-06
-1.16465e-09
0.0306099
-2.52123e-06
-1.61343e-09
0.03061
-1.63693e-06
-1.55203e-09
0.0306103
-1.99157e-07
-7.75261e-10
0.0306107
1.29339e-06
3.34352e-10
0.0306109
2.32234e-06
1.27872e-09
0.030611
2.49425e-06
1.68053e-09
0.0306108
1.74001e-06
1.42833e-09
3.0385e-07
6.73635e-10
0.0300039
-9.74678e-07
-1.83326e-10
0.0300036
-2.13793e-06
-1.16526e-09
0.0300034
-2.37749e-06
-1.67211e-09
0.0300035
-1.71621e-06
-1.64223e-09
0.0300038
-4.65167e-07
-8.47447e-10
0.0300041
9.42852e-07
3.05414e-10
0.0300044
2.01662e-06
1.29215e-09
0.0300046
2.34498e-06
1.7224e-09
0.0300045
1.8013e-06
1.48201e-09
5.65213e-07
7.253e-10
0.0293009
-6.08695e-07
-1.47917e-10
0.0293005
-1.76463e-06
-1.14843e-09
0.0293003
-2.14625e-06
-1.7216e-09
0.0293003
-1.71058e-06
-1.72597e-09
0.0293005
-6.7986e-07
-9.12309e-10
0.0293009
5.91635e-07
2.7977e-10
0.0293012
1.65857e-06
1.30004e-09
0.0293015
2.11106e-06
1.7507e-09
0.0293015
1.77675e-06
1.51959e-09
7.71406e-07
7.64596e-10
0.0284636
-2.69495e-07
-1.15166e-10
0.0284632
-1.35183e-06
-1.10723e-09
0.0284629
-1.82805e-06
-1.75948e-09
0.0284628
-1.60525e-06
-1.80171e-09
0.0284629
-8.18565e-07
-9.67436e-10
0.0284632
2.64887e-07
2.5904e-10
0.0284636
1.26422e-06
1.30182e-09
0.028464
1.79365e-06
1.76323e-09
0.0284641
1.65231e-06
1.53847e-09
8.97403e-07
7.89297e-10
0.0274262
9.03589e-09
-8.49447e-11
0.0274258
-9.23657e-07
-1.02893e-09
0.0274254
-1.42864e-06
-1.78032e-09
0.0274251
-1.38574e-06
-1.86628e-09
0.0274252
-8.51987e-07
-1.00927e-09
0.0274254
-4.65295e-09
2.44399e-10
0.0274258
8.572e-07
1.2954e-09
0.0274262
1.39895e-06
1.75617e-09
0.0274265
1.41468e-06
1.53513e-09
9.13963e-07
7.96993e-10
0.0260589
1.81391e-07
-5.58593e-11
0.0260585
-5.1768e-07
-8.905e-10
0.026058
-9.63429e-07
-1.77161e-09
0.0260577
-1.03919e-06
-1.91214e-09
0.0260576
-7.44069e-07
-1.03192e-09
0.0260577
-1.72459e-07
2.3564e-10
0.0260581
4.7317e-07
1.27483e-09
0.0260586
9.41581e-07
1.72176e-09
0.0260589
1.05308e-06
1.50366e-09
7.8671e-07
7.84637e-10
0.024055
1.82879e-07
-2.53399e-11
0.0240547
-2.00426e-07
-6.50123e-10
0.0240542
-4.71389e-07
-1.70154e-09
0.0240537
-5.60143e-07
-1.91849e-09
0.0240534
-4.48066e-07
-1.02281e-09
0.0240534
-1.72848e-07
2.30739e-10
0.0240537
1.70282e-07
1.22235e-09
0.0240542
4.54297e-07
1.64078e-09
0.0240547
5.66317e-07
1.43113e-09
4.78364e-07
7.46953e-10
0.0203289
2.48244e-11
0.0203287
-2.36415e-10
0.0203283
-1.46539e-09
0.0203277
-1.80354e-09
0.0203273
-9.41788e-10
0.0203271
2.07437e-10
0.0203273
1.07073e-09
0.0203277
1.44435e-09
0.0203283
1.26885e-09
6.66284e-10
0.0203275
-5.45751e-08
-1.65998e-10
0.0203276
-1.50185e-07
-3.28585e-10
0.0203278
-1.70245e-07
-2.09876e-10
0.0203279
-1.29731e-07
1.30685e-10
0.0203279
-4.41065e-08
1.41864e-10
0.0203279
5.96366e-08
2.6229e-11
0.0203277
1.41815e-07
-4.14742e-11
0.0203276
1.69056e-07
1.56775e-12
0.0203274
1.27333e-07
8.79743e-11
5.11854e-08
9.94358e-11
0.0240537
-1.47325e-07
-6.42151e-11
0.0240539
-2.91572e-07
-1.84495e-10
0.024054
-2.96061e-07
-1.81327e-10
0.0240541
-1.95374e-07
7.89353e-11
0.024054
-2.99864e-08
1.00052e-10
0.024054
1.4904e-07
-8.12991e-12
0.0240538
2.76648e-07
-6.45846e-11
0.0240537
2.98106e-07
-1.06245e-12
0.0240536
1.97014e-07
1.13099e-10
3.95287e-08
1.59055e-10
0.026058
-2.60802e-07
1.7675e-11
0.0260581
-4.08256e-07
-8.04099e-11
0.0260582
-3.68884e-07
-1.5842e-10
0.0260582
-1.99177e-07
2.95333e-11
0.0260581
3.47291e-08
5.15518e-11
0.026058
2.59271e-07
-4.50096e-11
0.0260579
3.92628e-07
-8.70187e-11
0.0260578
3.75136e-07
-6.78967e-12
0.0260578
2.0263e-07
1.29525e-10
-2.75533e-08
2.0302e-10
0.0274257
-3.7633e-07
8.173e-11
0.0274257
-4.96105e-07
-1.03346e-11
0.0274258
-3.96301e-07
-1.41928e-10
0.0274257
-1.58395e-07
-8.09329e-12
0.0274256
1.27625e-07
5.1146e-12
0.0274255
3.70854e-07
-7.89157e-11
0.0274254
4.81926e-07
-1.07691e-10
0.0274254
4.07587e-07
-1.2492e-11
0.0274254
1.63376e-07
1.41811e-10
-1.24843e-07
2.37928e-10
0.0284634
-4.8301e-07
1.31421e-10
0.0284634
-5.55148e-07
5.37845e-11
0.0284634
-3.8716e-07
-1.30403e-10
0.0284634
-8.73191e-08
-3.90126e-11
0.0284633
2.33649e-07
-3.57543e-11
0.0284632
4.73439e-07
-1.09169e-10
0.0284631
5.43194e-07
-1.25598e-10
0.0284631
4.03659e-07
-1.81444e-11
0.0284632
9.36272e-08
1.51316e-10
-2.35862e-07
2.65631e-10
0.0293009
-5.74325e-07
1.69219e-10
0.029301
-5.87052e-07
9.75109e-11
0.0293009
-3.49739e-07
-1.22536e-10
0.0293008
2.49477e-09
-6.53115e-11
0.0293007
3.42035e-07
-7.00851e-11
0.0293006
5.61012e-07
-1.34712e-10
0.0293006
5.77566e-07
-1.40038e-10
0.0293006
3.71169e-07
-2.32064e-11
0.0293007
4.78287e-09
1.58596e-10
-3.49175e-07
2.86935e-10
0.0300041
-6.46548e-07
1.96819e-10
0.0300041
-5.94399e-07
1.26101e-10
0.0300041
-2.91537e-07
-1.17392e-10
0.030004
1.0165e-07
-8.63201e-11
0.0300039
4.44902e-07
-9.75726e-11
0.0300038
6.30134e-07
-1.54779e-10
0.0300038
5.87394e-07
-1.5056e-10
0.0300038
3.17344e-07
-2.60481e-11
0.0300039
-9.38586e-08
1.63921e-10
-4.56586e-07
3.02367e-10
0.0306106
-6.9789e-07
2.15423e-10
0.0306106
-5.80318e-07
1.4412e-10
0.0306105
-2.19237e-07
-1.14331e-10
0.0306104
2.02529e-07
-1.02196e-10
0.0306103
5.36513e-07
-1.18117e-10
0.0306103
6.79109e-07
-1.68945e-10
0.0306103
5.75693e-07
-1.56947e-10
0.0306103
2.4876e-07
-2.72525e-11
0.0306104
-1.9468e-07
1.67303e-10
-5.52227e-07
3.12227e-10
0.0311437
-7.27962e-07
2.2596e-10
0.0311437
-5.48215e-07
1.53859e-10
0.0311436
-1.38698e-07
-1.12895e-10
0.0311435
2.99068e-07
-1.13273e-10
0.0311434
6.12852e-07
-1.31814e-10
0.0311434
7.07502e-07
-1.77052e-10
0.0311434
5.45799e-07
-1.59172e-10
0.0311435
1.71274e-07
-2.70091e-11
0.0311436
-2.91537e-07
1.68701e-10
-6.3205e-07
3.16752e-10
0.031619
-7.3739e-07
2.29227e-10
0.0316189
-5.01568e-07
1.56792e-10
0.0316188
-5.49251e-08
-1.12708e-10
0.0316187
3.86599e-07
-1.19889e-10
0.0316187
6.7133e-07
-1.38891e-10
0.0316187
7.15807e-07
-1.79163e-10
0.0316187
5.01137e-07
-1.5737e-10
0.0316188
8.99599e-08
-2.55142e-11
0.0316189
-3.79632e-07
1.68053e-10
-6.93478e-07
3.1618e-10
0.032047
-7.27535e-07
2.25956e-10
0.0320469
-4.43763e-07
1.5403e-10
0.0320468
2.79273e-08
-1.13444e-10
0.0320468
4.61718e-07
-1.22358e-10
0.0320467
7.10553e-07
-1.39683e-10
0.0320467
7.05201e-07
-1.75513e-10
0.0320468
4.45044e-07
-1.51798e-10
0.0320469
9.07419e-09
-2.30181e-11
0.032047
-4.55403e-07
1.65301e-10
-7.35156e-07
3.10777e-10
0.0324354
-7.00265e-07
2.1686e-10
0.0324353
-3.77971e-07
1.46476e-10
0.0324353
1.06557e-07
-1.1484e-10
0.0324352
5.22162e-07
-1.2098e-10
0.0324352
7.30133e-07
-1.3461e-10
0.0324352
6.77345e-07
-1.66479e-10
0.0324353
3.80645e-07
-1.42812e-10
0.0324354
-6.79586e-08
-1.97897e-11
0.0324354
-5.16417e-07
1.60416e-10
-7.56742e-07
3.00852e-10
0.0327898
-6.5778e-07
2.02648e-10
0.0327897
-3.07048e-07
1.34907e-10
0.0327897
1.78491e-07
-1.16621e-10
0.0327896
5.66698e-07
-1.1606e-10
0.0327896
7.30517e-07
-1.24167e-10
0.0327897
6.34226e-07
-1.52546e-10
0.0327897
3.10755e-07
-1.3084e-10
0.0327898
-1.38536e-07
-1.60908e-11
0.0327899
-5.61266e-07
1.53402e-10
-7.58734e-07
2.86767e-10
0.0331144
-6.0247e-07
1.84038e-10
0.0331143
-2.3347e-07
1.20012e-10
0.0331142
2.42061e-07
-1.18551e-10
0.0331142
5.95007e-07
-1.07911e-10
0.0331142
7.12838e-07
-1.08908e-10
0.0331143
5.78026e-07
-1.34286e-10
0.0331143
2.37821e-07
-1.16357e-10
0.0331144
-2.00853e-07
-1.20861e-11
0.0331144
-5.89472e-07
1.44315e-10
-7.4233e-07
2.68935e-10
0.0334121
-5.36799e-07
1.61755e-10
0.0334121
-1.59281e-07
1.02451e-10
0.033412
2.96359e-07
-1.20427e-10
0.033412
6.07588e-07
-9.68711e-11
0.033412
6.7879e-07
-8.94435e-11
0.0334121
5.11019e-07
-1.12336e-10
0.0334122
1.63874e-07
-9.9871e-11
0.0334122
-2.53876e-07
-8.44884e-12
0.0334122
-6.01392e-07
1.33261e-10
-7.09293e-07
2.47826e-10
0.0336855
-4.63214e-07
1.36528e-10
0.0336854
-8.60674e-08
8.29752e-11
0.0336854
3.41199e-07
-1.22084e-10
0.0336854
6.05657e-07
-8.33032e-11
0.0336855
6.30523e-07
-6.64241e-11
0.0336855
4.35497e-07
-8.73727e-11
0.0336856
9.05068e-08
-8.18968e-11
0.0336856
-2.97297e-07
-4.94991e-12
0.0336856
-5.98136e-07
1.20402e-10
-6.61851e-07
2.23954e-10
0.0339362
-3.8408e-07
1.09086e-10
0.0339362
-1.49502e-08
6.23415e-11
0.0339361
3.77068e-07
-1.23405e-10
0.0339362
5.91073e-07
-6.76084e-11
0.0339362
5.70561e-07
-4.05384e-11
0.0339363
3.53712e-07
-6.0101e-11
0.0339364
1.88672e-08
-6.29436e-11
0.0339364
-3.31503e-07
-1.88693e-12
0.0339364
-5.815e-07
1.05962e-10
-6.02611e-07
1.97878e-10
0.0341656
-3.01634e-07
8.0148e-11
0.0341656
5.34048e-08
4.14292e-11
0.0341655
4.0507e-07
-1.24326e-10
0.0341656
5.66267e-07
-5.02355e-11
0.0341656
5.01745e-07
-1.25139e-11
0.0341657
2.67853e-07
-3.12254e-11
0.0341658
-5.03313e-08
-4.34928e-11
0.0341658
-3.57525e-07
6.1272e-13
0.0341658
-5.53905e-07
9.02207e-11
-5.34494e-07
1.70189e-10
0.0343746
-2.17979e-07
5.04191e-11
0.0343746
1.18748e-07
2.16618e-11
0.0343746
4.26871e-07
-1.24845e-10
0.0343746
5.34182e-07
-3.17151e-11
0.0343747
4.27195e-07
1.68064e-11
0.0343747
1.80041e-07
-1.38106e-12
0.0343748
-1.16777e-07
-2.39792e-11
0.0343748
-3.7699e-07
2.49111e-12
0.0343748
-5.18347e-07
7.35121e-11
-4.60695e-07
1.41502e-10
0.034564
-1.35098e-07
2.06448e-11
0.0345639
1.81183e-07
1.96453e-12
0.0345639
4.44615e-07
-1.25026e-10
0.0345639
4.9822e-07
-1.29143e-11
0.034564
3.503e-07
4.71978e-11
0.0345641
9.23629e-08
2.86719e-11
0.0345641
-1.80499e-07
-4.74125e-12
0.0345642
-3.9205e-07
3.76108e-12
0.0345641
-4.78346e-07
5.62212e-11
-3.84652e-07
1.12438e-10
0.0347341
-5.49149e-08
-7.79024e-12
0.034734
2.41059e-07
-1.94127e-11
0.034734
4.60821e-07
-1.25e-10
0.034734
4.62173e-07
6.51426e-12
0.0347341
2.74708e-07
7.74442e-11
0.0347342
6.92362e-09
5.80898e-11
0.0347343
-2.41772e-07
1.40593e-11
0.0347343
-4.05279e-07
4.51445e-12
0.0347342
-4.37875e-07
3.87724e-11
-3.10035e-07
8.36035e-11
0.0348854
2.0617e-08
-3.76572e-11
0.0348854
2.98827e-07
-4.39412e-11
0.0348854
4.78234e-07
-1.24964e-10
0.0348854
4.30127e-07
2.68741e-11
0.0348855
2.04321e-07
1.07032e-10
0.0348855
-7.40724e-08
8.67254e-11
0.0348856
-3.00969e-07
3.14761e-11
0.0348856
-4.19523e-07
4.93191e-12
0.0348856
-4.01246e-07
2.16158e-11
-2.40735e-07
5.55596e-11
0.0350183
8.93868e-08
-6.52273e-11
0.0350183
3.54827e-07
-6.71283e-11
0.0350183
4.99615e-07
-1.25172e-10
0.0350183
4.06318e-07
4.57139e-11
0.0350184
1.43257e-07
1.35379e-10
0.0350184
-1.48229e-07
1.14053e-10
0.0350185
-3.5838e-07
4.81136e-11
0.0350185
-4.37677e-07
5.23816e-12
0.0350185
-3.7294e-07
5.18684e-12
-1.80827e-07
2.87683e-11
0.0351332
1.49005e-07
-9.11895e-11
0.0351331
4.09061e-07
-8.96836e-11
0.0351331
5.27474e-07
-1.25928e-10
0.0351331
3.94916e-07
6.3111e-11
0.0351331
9.57664e-08
1.61987e-10
0.0351332
-2.12875e-07
1.39762e-10
0.0351333
-4.13979e-07
6.38814e-11
0.0351333
-4.624e-07
5.53917e-12
0.0351333
-3.57352e-07
-9.98487e-12
-1.34492e-07
2.96664e-12
0.0352303
1.96707e-07
-1.15489e-10
0.0352302
4.60951e-07
-1.12056e-10
0.0352302
5.63742e-07
-1.27576e-10
0.0352302
3.9972e-07
7.8676e-11
0.0352302
6.60702e-08
1.8646e-10
0.0352302
-2.65021e-07
1.63699e-10
0.0352303
-4.67185e-07
7.88927e-11
0.0352303
-4.95757e-07
6.48143e-12
0.0352303
-3.5845e-07
-2.34338e-11
-1.05874e-07
-1.91519e-11
0.0353101
2.29321e-07
-1.38164e-10
0.03531
5.0911e-07
-1.3462e-10
0.03531
6.09424e-07
-1.30489e-10
0.03531
4.23804e-07
9.20132e-11
0.03531
5.81236e-08
2.0852e-10
0.03531
-3.01374e-07
1.85852e-10
0.0353101
-5.16642e-07
9.34038e-11
0.0353101
-5.38848e-07
8.40534e-12
0.0353101
-3.7938e-07
-3.4847e-11
-9.88504e-08
-3.92926e-11
0.0353731
2.43342e-07
-1.59371e-10
0.0353731
5.51198e-07
-1.57797e-10
0.035373
6.64276e-07
-1.35065e-10
0.035373
4.69128e-07
1.0276e-10
0.035373
7.5313e-08
2.27986e-10
0.035373
-3.18437e-07
2.0634e-10
0.035373
-5.60072e-07
1.07775e-10
0.0353731
-5.91466e-07
1.18642e-11
0.0353731