/*--------------------------------*- C++ -*----------------------------------*\
| =========                 |                                                 |
| \\      /  F ield         | OpenFOAM: The Open Source CFD Toolbox           |
|  \\    /   O peration     | Version:  2.3.0                                 |
|   \\  /    A nd           | Web:      www.OpenFOAM.org                      |
|    \\/     M anipulation  |                                                 |
\*---------------------------------------------------------------------------*/
FoamFile
{
    version     2.0;
    format      ascii;
    class       volSymmTensorField;
    location    "400";
    object      R;
}
// * * * * * * * * * * * * * * * * * * * * * * * * * * * * * * * * * * * * * //

dimensions      [0 2 -2 0 0 0 0];

internalField   nonuniform List<symmTensor> 
6000
(
(0.00465652 -0.00663173 -5.42621e-13 0.00465652 -1.77792e-11 0.00465652)
(0.00465657 -0.0066318 6.61885e-14 0.00465657 -4.58358e-11 0.00465657)
(0.00465665 -0.00663191 6.43032e-13 0.00465665 -9.18781e-12 0.00465665)
(0.00465674 -0.00663201 2.40468e-13 0.00465674 3.71381e-11 0.00465674)
(0.00465681 -0.00663209 -3.0006e-13 0.00465681 2.57089e-11 0.00465681)
(0.00465683 -0.00663209 -1.66316e-10 0.00465683 -6.36014e-12 0.00465683)
(0.00465679 -0.00663204 3.69238e-14 0.00465679 -1.81921e-11 0.00465679)
(0.00465671 -0.00663195 -1.6579e-10 0.00465671 -3.45597e-12 0.00465671)
(0.00465662 -0.00663183 1.62728e-13 0.00465662 1.81249e-11 0.00465662)
(0.00465655 -0.00663176 -1.66301e-10 0.00465655 2.31176e-11 0.00465655)
(0.00461149 -0.00214012 -9.33118e-13 0.0046115 1.40796e-11 0.00461149)
(0.00461151 -0.00214012 1.11544e-13 0.00461152 5.07973e-11 0.00461151)
(0.00461163 -0.00214015 1.13643e-12 0.00461164 6.03417e-12 0.00461163)
(0.00461182 -0.00214024 5.51973e-13 0.00461182 -7.30577e-12 0.00461182)
(0.00461201 -0.00214035 -6.92987e-13 0.00461201 3.06272e-12 0.00461201)
(0.00461215 -0.00214045 -4.15796e-10 0.00461214 7.46765e-12 0.00461215)
(0.00461217 -0.00214048 -4.15042e-10 0.00461216 2.06762e-12 0.00461217)
(0.00461206 -0.00214045 6.01361e-13 0.00461205 -4.2924e-12 0.00461205)
(0.00461185 -0.00214034 4.78518e-13 0.00461185 -4.93508e-12 0.00461185)
(0.00461165 -0.00214024 -4.15497e-10 0.00461165 -1.23057e-13 0.00461165)
(0.00433293 -0.00196398 -1.07328e-12 0.00433294 7.74884e-12 0.00433293)
(0.00433296 -0.00196399 6.45775e-14 0.00433296 3.99766e-11 0.00433296)
(0.00433312 -0.00196404 1.27826e-12 0.00433312 -4.97793e-12 0.00433312)
(0.00433335 -0.00196415 -6.46396e-10 0.00433335 -1.95626e-11 0.00433335)
(0.0043336 -0.00196429 -8.60395e-13 0.00433359 -1.13877e-12 0.00433359)
(0.00433374 -0.00196439 -1.09801e-12 0.00433374 1.37084e-11 0.00433374)
(0.00433374 -0.00196443 -7.52868e-14 0.00433374 1.10813e-11 0.00433374)
(0.0043336 -0.00196437 8.29911e-13 0.00433359 -7.02606e-13 0.00433359)
(0.00433335 -0.00196426 -6.46554e-10 0.00433335 -8.83145e-12 0.00433335)
(0.00433311 -0.00196412 -6.60726e-13 0.00433312 -7.76594e-12 0.00433311)
(0.00411243 -0.00186943 -1.12892e-12 0.00411244 7.74512e-13 0.00411244)
(0.00411248 -0.00186943 -4.555e-14 0.00411249 2.65071e-11 0.00411249)
(0.00411268 -0.00186953 1.26602e-12 0.00411268 -1.2341e-11 0.00411268)
(0.00411296 -0.00186967 1.20062e-12 0.00411295 -2.50912e-11 0.00411295)
(0.00411321 -0.00186983 -8.38802e-13 0.0041132 -3.33361e-12 0.00411321)
(0.00411336 -0.00186995 -1.30942e-12 0.00411335 1.73435e-11 0.00411335)
(0.00411333 -0.00187 -1.85712e-13 0.00411332 1.70332e-11 0.00411333)
(0.00411315 -0.00186992 9.38902e-13 0.00411315 2.13311e-12 0.00411315)
(0.00411287 -0.00186977 8.87368e-13 0.00411287 -1.13716e-11 0.00411287)
(0.00411262 -0.00186958 -7.84599e-13 0.00411262 -1.39686e-11 0.00411262)
(0.00392121 -0.0017888 -1.15968e-12 0.00392123 -4.61385e-12 0.00392122)
(0.00392128 -0.00178878 -1.86437e-13 0.00392129 1.54957e-11 0.00392129)
(0.00392151 -0.00178889 1.19264e-12 0.00392151 -1.53445e-11 0.00392151)
(0.00392181 -0.0017891 1.54923e-12 0.0039218 -2.56499e-11 0.00392181)
(0.00392207 -0.00178926 -6.83458e-13 0.00392206 -3.90372e-12 0.00392207)
(0.0039222 -0.00178942 -1.06174e-09 0.00392219 1.87925e-11 0.00392219)
(0.00392214 -0.00178943 -3.01368e-13 0.00392214 1.98507e-11 0.00392214)
(0.00392192 -0.00178933 9.49105e-13 0.00392192 3.4504e-12 0.00392192)
(0.00392163 -0.00178915 9.51818e-13 0.00392164 -1.3332e-11 0.00392163)
(0.00392137 -0.00178896 -9.07943e-13 0.00392139 -1.80403e-11 0.00392138)
(0.00374599 -0.00171354 -1.18565e-12 0.003746 -7.65162e-12 0.00374599)
(0.00374608 -0.00171354 -3.32274e-13 0.00374609 8.53811e-12 0.00374609)
(0.00374634 -0.00171367 1.10624e-12 0.00374633 -1.46614e-11 0.00374633)
(0.00374664 -0.00171388 1.89318e-12 0.00374663 -2.30133e-11 0.00374663)
(0.00374689 -0.0017141 -4.51274e-13 0.00374688 -3.55036e-12 0.00374689)
(0.00374699 -0.00171424 -1.41504e-12 0.00374698 1.83522e-11 0.00374699)
(0.0037469 -0.00171422 1.23586e-09 0.0037469 1.98971e-11 0.0037469)
(0.00374666 -0.00171412 1.23704e-09 0.00374667 3.25064e-12 0.00374667)
(0.00374636 -0.0017139 9.44092e-13 0.00374637 -1.48583e-11 0.00374637)
(0.00374611 -0.00171372 -1.03369e-12 0.00374613 -2.01862e-11 0.00374612)
(0.00358059 -0.00164066 -1.20836e-12 0.0035806 -8.3173e-12 0.00358059)
(0.00358071 -0.00164071 -4.66696e-13 0.00358071 5.44101e-12 0.00358071)
(0.00358098 -0.00164084 1.02654e-12 0.00358097 -1.14161e-11 0.00358097)
(0.00358129 -0.00164106 2.2164e-12 0.00358127 -1.86278e-11 0.00358128)
(0.00358151 -0.0016413 -1.87903e-13 0.0035815 -2.87538e-12 0.00358151)
(0.00358158 -0.00164142 -1.37488e-12 0.00358158 1.63413e-11 0.00358158)
(0.00358147 -0.00164139 1.39206e-09 0.00358147 1.7748e-11 0.00358147)
(0.00358121 -0.00164127 1.39319e-09 0.00358122 1.85942e-12 0.00358121)
(0.00358091 -0.00164106 8.87758e-13 0.00358092 -1.58398e-11 0.00358091)
(0.00358068 -0.00164086 1.39087e-09 0.00358069 -2.05922e-11 0.00358069)
(0.00342191 -0.00156899 -1.22465e-12 0.00342192 -6.9567e-12 0.00342191)
(0.00342205 -0.00156906 -5.81494e-13 0.00342205 5.35595e-12 0.00342205)
(0.00342233 -0.00156924 9.59683e-13 0.00342232 -6.72962e-12 0.00342233)
(0.00342263 -0.00156949 2.50615e-12 0.00342261 -1.35272e-11 0.00342262)
(0.00342283 -0.00156967 7.26578e-14 0.00342282 -2.34736e-12 0.00342283)
(0.00342287 -0.00156977 1.52926e-09 0.00342286 1.31e-11 0.00342287)
(0.00342273 -0.00156976 -6.13247e-13 0.00342273 1.40242e-11 0.00342273)
(0.00342245 -0.00156959 1.53092e-09 0.00342247 -2.91872e-13 0.00342246)
(0.00342217 -0.00156939 1.53084e-09 0.00342218 -1.61842e-11 0.00342217)
(0.00342196 -0.00156916 -1.26759e-12 0.00342197 -1.93532e-11 0.00342197)
(0.00326826 -0.00149782 -1.23108e-12 0.00326826 -4.01826e-12 0.00326826)
(0.00326842 -0.0014979 -6.74599e-13 0.00326842 7.35321e-12 0.00326842)
(0.0032687 -0.00149822 9.04285e-13 0.00326869 -1.51344e-12 0.00326869)
(0.00326898 -0.0014986 2.75356e-12 0.00326897 -8.56153e-12 0.00326897)
(0.00326916 -0.00149891 3.07707e-13 0.00326915 -2.25811e-12 0.00326915)
(0.00326916 -0.00149856 -1.23728e-12 0.00326916 8.96568e-12 0.00326916)
(0.003269 -0.00149849 1.65061e-09 0.003269 9.32012e-12 0.003269)
(0.00326872 -0.00149864 5.19264e-13 0.00326873 -2.77226e-12 0.00326873)
(0.00326845 -0.00149827 1.65153e-09 0.00326846 -1.58381e-11 0.00326845)
(0.00326828 -0.00149797 1.64927e-09 0.00326829 -1.6723e-11 0.00326828)
(0.00311869 -0.00142755 -1.22571e-12 0.00311869 3.03349e-14 0.00311869)
(0.00311887 -0.00142721 -7.47995e-13 0.00311887 1.06054e-11 0.00311887)
(0.00311914 -0.00142753 8.55518e-13 0.00311913 3.54253e-12 0.00311914)
(0.0031194 -0.00142791 2.95323e-12 0.00311939 -4.28649e-12 0.0031194)
(0.00311956 -0.00142819 5.03592e-13 0.00311954 -2.76867e-12 0.00311955)
(0.00311954 -0.00142829 -1.1709e-12 0.00311953 4.25622e-12 0.00311953)
(0.00311934 -0.00142811 -7.70576e-13 0.00311936 4.16229e-12 0.00311935)
(0.00311907 -0.00142779 3.95552e-13 0.00311909 -5.20964e-12 0.00311908)
(0.00311883 -0.00142742 6.37413e-13 0.00311883 -1.47639e-11 0.00311883)
(0.00311868 -0.00142714 -1.42925e-12 0.00311868 -1.29728e-11 0.00311868)
(0.00297271 -0.00135727 -1.20851e-12 0.00297271 4.74583e-12 0.00297271)
(0.00297291 -0.00135691 -8.06219e-13 0.00297289 1.44312e-11 0.0029729)
(0.00297317 -0.00135714 8.0727e-13 0.00297316 7.92555e-12 0.00297317)
(0.0029734 -0.00135735 3.10286e-12 0.00297339 -1.03494e-12 0.0029734)
(0.00297351 -0.00135745 6.53731e-13 0.00297351 -3.92171e-12 0.00297351)
(0.00297347 -0.00135795 -1.11707e-12 0.00297347 -7.2617e-13 0.00297347)
(0.00297327 -0.0013578 -8.29766e-13 0.00297328 -1.00392e-12 0.00297327)
(0.00297301 -0.00135706 2.91943e-13 0.00297302 -7.31071e-12 0.00297301)
(0.00297278 -0.00135686 5.77573e-13 0.00297279 -1.29664e-11 0.00297278)
(0.00297265 -0.00135727 -1.47074e-12 0.00297267 -8.37458e-12 0.00297267)
(0.00283009 -0.00128615 -1.18099e-12 0.00283008 9.73061e-12 0.00283008)
(0.00283029 -0.00128687 -8.55097e-13 0.00283027 1.83021e-11 0.00283027)
(0.00283053 -0.00128709 7.53562e-13 0.00283052 1.13327e-11 0.00283053)
(0.00283073 -0.00128727 3.2028e-12 0.00283073 1.05761e-12 0.00283073)
(0.00283081 -0.00128735 7.56718e-13 0.00283081 -5.67074e-12 0.00283081)
(0.00283074 -0.0012873 -1.07848e-12 0.00283074 -5.71028e-12 0.00283074)
(0.00283054 -0.00128713 -8.73832e-13 0.00283055 -5.82932e-12 0.00283054)
(0.00283029 -0.00128693 2.15656e-13 0.0028303 -8.85948e-12 0.00283029)
(0.00283007 -0.00128675 5.44884e-13 0.00283009 -1.04872e-11 0.00283009)
(0.00282999 -0.00128668 -1.484e-12 0.00283001 -3.20575e-12 0.00283001)
(0.00269075 -0.00121621 -1.14586e-12 0.00269075 1.465e-11 0.00269075)
(0.00269095 -0.00121695 -9.00545e-13 0.00269094 2.18231e-11 0.00269095)
(0.00269118 -0.0012166 6.8936e-13 0.00269117 1.36203e-11 0.00269118)
(0.00269136 -0.00121676 3.25541e-12 0.00269136 1.97882e-12 0.00269136)
(0.00269141 -0.00121681 8.14806e-13 0.00269141 -7.89915e-12 0.00269141)
(0.00269132 -0.00121674 -1.05497e-12 0.00269132 -1.04593e-11 0.00269132)
(0.00269112 -0.00121714 -9.01257e-13 0.00269113 -1.0049e-11 0.00269112)
(0.00269089 -0.00121694 1.71129e-13 0.00269089 -9.72122e-12 0.00269089)
(0.00269071 -0.00121679 5.4331e-13 0.00269071 -7.40957e-12 0.00269071)
(0.00269065 -0.00121617 -1.47009e-12 0.00269065 2.27465e-12 0.00269065)
(0.00255485 -0.00114629 -1.10656e-12 0.00255484 1.92288e-11 0.00255485)
(0.00255506 -0.00114647 -9.48068e-13 0.00255503 2.47167e-11 0.00255504)
(0.00255527 -0.00114667 6.10988e-13 0.00255525 1.47349e-11 0.00255525)
(0.0025554 -0.0011468 3.26468e-12 0.0025554 1.81759e-12 0.0025554)
(0.00255542 -0.00114682 8.3263e-13 0.00255542 -1.04699e-11 0.00255542)
(0.0025553 -0.00114674 -1.04442e-12 0.00255532 -1.47897e-11 0.00255531)
(0.0025551 -0.00114657 -9.1077e-13 0.00255512 -1.34854e-11 0.00255511)
(0.0025549 -0.00114639 1.60434e-13 0.00255491 -9.83331e-12 0.0025549)
(0.00255475 -0.00114627 5.74054e-13 0.00255476 -3.84358e-12 0.00255475)
(0.00255473 -0.00114624 -1.43166e-12 0.00255472 7.82673e-12 0.00255473)
(0.0024226 -0.00107622 -1.06679e-12 0.00242259 2.32554e-11 0.0024226)
(0.00242279 -0.0010764 -1.00237e-12 0.00242279 2.68035e-11 0.00242279)
(0.00242298 -0.00107657 5.16265e-13 0.00242297 1.47032e-11 0.00242298)
(0.0024231 -0.00107668 3.23592e-12 0.0024231 7.17783e-13 0.0024231)
(0.0024231 -0.00107669 8.16277e-13 0.0024231 -1.32203e-11 0.0024231)
(0.00242298 -0.00107718 -1.04378e-12 0.00242299 -1.85552e-11 0.00242298)
(0.00242278 -0.00107642 -9.016e-13 0.00242279 -1.60402e-11 0.00242278)
(0.00242259 -0.00107627 1.83709e-13 0.0024226 -9.19551e-12 0.00242259)
(0.00242247 -0.00107616 6.36171e-13 0.00242247 8.55208e-14 0.00242247)
(0.00242247 -0.00107616 -1.37254e-12 0.00242247 1.32396e-11 0.00242247)
(0.00229439 -0.00100617 -1.03031e-12 0.00229439 2.65902e-11 0.00229439)
(0.00229458 -0.00100634 -1.06716e-12 0.00229456 2.79979e-11 0.00229457)
(0.00229475 -0.00100649 4.04495e-13 0.00229473 1.36214e-11 0.00229473)
(0.00229483 -0.00100658 3.1753e-12 0.00229483 -1.14691e-12 0.00229483)
(0.00229478 -0.00100656 7.72461e-13 0.00229481 -1.60042e-11 0.0022948)
(0.00229466 -0.00100646 -1.04956e-12 0.00229468 -2.16612e-11 0.00229467)
(0.00229449 -0.00100691 -8.73565e-13 0.00229449 -1.76798e-11 0.00229449)
(0.00229432 -0.00100676 2.39575e-13 0.00229432 -7.85913e-12 0.00229432)
(0.00229423 -0.00100669 7.27167e-13 0.00229423 4.23867e-12 0.00229423)
(0.00229425 -0.0010067 -1.29724e-12 0.00229424 1.83392e-11 0.00229425)
(0.0021707 -0.00093633 -1.00048e-12 0.00217067 2.91541e-11 0.00217068)
(0.00217085 -0.000936494 -1.14515e-12 0.00217084 2.82779e-11 0.00217085)
(0.00217099 -0.000936623 2.7626e-13 0.00217098 1.16195e-11 0.00217099)
(0.00217105 -0.000936688 3.08947e-12 0.00217106 -3.58896e-12 0.00217105)
(0.00217101 -0.00093727 7.07917e-13 0.00217102 -1.86932e-11 0.00217101)
(0.00217086 -0.000936546 -1.05852e-12 0.00217089 -2.40635e-11 0.00217088)
(0.00217069 -0.000936401 -8.27079e-13 0.00217071 -1.84348e-11 0.00217071)
(0.00217056 -0.000936278 3.25556e-13 0.00217056 -5.91816e-12 0.00217056)
(0.00217049 -0.000936221 8.4356e-13 0.00217049 8.48403e-12 0.00217049)
(0.00217054 -0.00093625 -1.21053e-12 0.00217052 2.29947e-11 0.00217053)
(0.00205205 -0.000867052 -9.80278e-13 0.00205204 3.0921e-11 0.00205205)
(0.00205222 -0.000866582 -1.23801e-12 0.00205219 2.76903e-11 0.0020522)
(0.00205234 -0.000866696 1.33184e-13 0.00205232 8.85376e-12 0.00205232)
(0.00205234 -0.000866738 2.98524e-12 0.00205236 -6.41729e-12 0.00205236)
(0.00205228 -0.000866691 6.28919e-13 0.00205231 -2.11855e-11 0.0020523)
(0.00205217 -0.000867203 -1.0679e-12 0.00205218 -2.57676e-11 0.00205217)
(0.00205201 -0.000866453 -7.63182e-13 0.00205202 -1.83882e-11 0.00205201)
(0.00205189 -0.000866346 4.38468e-13 0.00205189 -3.49213e-12 0.00205189)
(0.00205185 -0.000866313 9.81434e-13 0.00205184 1.26916e-11 0.00205185)
(0.00205189 -0.000866352 -1.11708e-12 0.00205189 2.71027e-11 0.00205189)
(0.00193918 -0.000796451 -9.71916e-13 0.00193915 3.19256e-11 0.00193916)
(0.00193931 -0.000796583 -1.34663e-12 0.00193929 2.63448e-11 0.00193929)
(0.00193939 -0.000797301 -2.24937e-14 0.00193938 5.50928e-12 0.00193939)
(0.00193941 -0.000797326 2.86913e-12 0.00193941 -9.4697e-12 0.00193941)
(0.00193932 -0.000796647 5.40924e-13 0.00193935 -2.34058e-11 0.00193934)
(0.0019392 -0.000797171 -1.0757e-12 0.00193922 -2.68226e-11 0.00193921)
(0.00193907 -0.000797056 -6.83425e-13 0.00193908 -1.76671e-11 0.00193907)
(0.00193897 -0.000796974 5.74814e-13 0.00193898 -7.29192e-13 0.00193897)
(0.00193895 -0.000796948 1.13687e-12 0.00193894 1.67355e-11 0.00193895)
(0.00193901 -0.000796997 -1.02104e-12 0.001939 3.06219e-11 0.00193901)
(0.00183276 -0.000726656 -9.76785e-13 0.00183274 3.2256e-11 0.00183275)
(0.00183286 -0.000727404 -1.47108e-12 0.00183285 2.44025e-11 0.00183286)
(0.00183293 -0.00072748 -1.88257e-13 0.00183293 1.78032e-12 0.00183293)
(0.00183294 -0.00072749 2.74699e-12 0.00183294 -1.25954e-11 0.00183294)
(0.00183285 -0.000727436 4.48229e-13 0.00183287 -2.53372e-11 0.00183287)
(0.00183273 -0.000726705 -1.08082e-12 0.00183276 -2.73342e-11 0.00183275)
(0.00183263 -0.000727245 -5.89736e-13 0.00183263 -1.6439e-11 0.00183263)
(0.00183255 -0.000727177 7.31103e-13 0.00183255 2.20823e-12 0.00183255)
(0.00183253 -0.000727167 1.3064e-12 0.00183253 2.05178e-11 0.00183253)
(0.00183262 -0.00072658 -9.25763e-13 0.00183259 3.35323e-11 0.0018326)
(0.00173359 -0.000657686 -9.95303e-13 0.00173358 3.20515e-11 0.00173359)
(0.00173367 -0.000657775 -1.61087e-12 0.00173367 2.20732e-11 0.00173367)
(0.00173373 -0.000657829 -3.61728e-13 0.00173373 -2.11509e-12 0.00173373)
(0.00173372 -0.000657829 2.6235e-12 0.00173372 -1.56599e-11 0.00173372)
(0.00173365 -0.000657778 3.5379e-13 0.00173365 -2.69951e-11 0.00173365)
(0.00173352 -0.000657054 -1.08302e-12 0.00173355 -2.74451e-11 0.00173354)
(0.00173342 -0.000657616 -4.84272e-13 0.00173345 -1.49051e-11 0.00173344)
(0.00173338 -0.000657566 9.0416e-13 0.00173338 5.14044e-12 0.00173338)
(0.0017334 -0.000657566 1.48727e-12 0.00173338 2.39431e-11 0.00173338)
(0.00173346 -0.000656975 -2.27257e-08 0.00173344 3.58656e-11 0.00173345)
(0.00164245 -0.000587953 -1.02672e-12 0.00164244 3.14981e-11 0.00164245)
(0.00164251 -0.000588024 -1.76485e-12 0.00164251 1.96123e-11 0.00164251)
(0.00164255 -0.000588062 -5.40969e-13 0.00164255 -5.94365e-12 0.00164255)
(0.00164253 -0.000588057 2.50181e-12 0.00164254 -1.85552e-11 0.00164253)
(0.00164246 -0.000588005 2.59018e-13 0.00164247 -2.84217e-11 0.00164246)
(0.00164236 -0.000588592 -1.08295e-12 0.00164238 -2.73397e-11 0.00164237)
(0.00164227 -0.000587876 -3.69304e-13 0.00164229 -1.33016e-11 0.00164229)
(0.00164225 -0.000587847 1.09131e-12 0.00164225 7.88204e-12 0.00164225)
(0.00164228 -0.000587852 1.67765e-12 0.00164226 2.69344e-11 0.00164226)
(0.00164234 -0.000588545 -7.45203e-13 0.00164231 3.76832e-11 0.00164232)
(0.00156008 -0.000518852 -2.3271e-08 0.00156006 3.08228e-11 0.00156007)
(0.00156011 -0.000518907 -1.9312e-12 0.00156011 1.73361e-11 0.00156011)
(0.00156013 -0.000518929 -7.24721e-13 0.00156013 -9.44345e-12 0.00156013)
(0.00156011 -0.00051892 2.38302e-12 0.00156011 -2.11769e-11 0.00156011)
(0.00156003 -0.00051888 1.63663e-13 0.00156005 -2.97079e-11 0.00156005)
(0.00155996 -0.000518827 -1.08209e-12 0.00155998 -2.72367e-11 0.00155997)
(0.00155991 -0.00051813 -2.47114e-13 0.00155992 -1.18948e-11 0.00155991)
(0.00155989 -0.000518107 1.2905e-12 0.00155989 1.02287e-11 0.00155989)
(0.0015599 -0.000518112 1.87675e-12 0.0015599 2.94243e-11 0.0015599)
(0.00155997 -0.000518805 -6.60214e-13 0.00155995 3.9079e-11 0.00155995)
(0.00148709 -0.000449635 -1.11825e-12 0.00148708 3.02838e-11 0.00148709)
(0.00148711 -0.000449669 -2.1072e-12 0.00148711 1.56173e-11 0.00148711)
(0.00148711 -0.000449678 -9.12653e-13 0.00148711 -1.23245e-11 0.00148711)
(0.00148709 -0.00044967 2.26591e-12 0.00148709 -2.34296e-11 0.00148709)
(0.00148705 -0.000449641 6.57378e-14 0.00148705 -3.09477e-11 0.00148705)
(0.00148699 -0.000448943 -1.08274e-12 0.001487 -2.738e-11 0.00148699)
(0.00148696 -0.000448919 -1.19953e-13 0.00148697 -1.09678e-11 0.00148696)
(0.00148695 -0.000448911 1.50022e-12 0.00148695 1.1964e-11 0.00148695)
(0.00148696 -0.000448914 2.0848e-12 0.00148696 3.1344e-11 0.00148696)
(0.00148699 -0.000448935 -5.76256e-13 0.00148699 4.01635e-11 0.00148699)
(0.00142403 -0.00038007 -1.16895e-12 0.00142403 3.01529e-11 0.00142403)
(0.00142403 -0.000380085 -2.28894e-12 0.00142403 1.48537e-11 0.00142403)
(0.00142402 -0.000380085 -1.10544e-12 0.00142402 -1.42715e-11 0.00142402)
(0.001424 -0.000380077 2.14665e-12 0.001424 -2.52094e-11 0.001424)
(0.00142397 -0.000380062 -3.8452e-14 0.00142398 -3.22416e-11 0.00142397)
(0.00142395 -0.000380047 -1.08785e-12 0.00142395 -2.80202e-11 0.00142395)
(0.00142393 -0.000380038 9.84641e-15 0.00142394 -1.08214e-11 0.00142393)
(0.00142393 -0.000380035 1.7193e-12 0.00142394 1.28542e-11 0.00142393)
(0.00142395 -0.000380716 -2.3884e-08 0.00142395 3.26128e-11 0.00142395)
(0.00142397 -0.000380725 -4.89279e-13 0.00142396 4.10523e-11 0.00142397)
(0.00137129 -0.000311265 -2.42085e-08 0.00137127 3.069e-11 0.00137127)
(0.00137125 -0.000311265 -2.47103e-12 0.00137124 1.54633e-11 0.00137125)
(0.00137122 -0.000311256 -1.30456e-12 0.00137121 -1.49521e-11 0.00137122)
(0.0013712 -0.000311248 2.0189e-12 0.0013712 -2.63915e-11 0.0013712)
(0.00137119 -0.000311245 -1.54204e-13 0.00137119 -3.36689e-11 0.00137119)
(0.0013712 -0.000311247 -1.10118e-12 0.0013712 -2.93932e-11 0.0013712)
(0.00137121 -0.000311252 1.39709e-13 0.00137122 -1.17591e-11 0.00137121)
(0.00137121 -0.000311257 1.94676e-12 0.00137123 1.2648e-11 0.00137123)
(0.00137122 -0.000311259 2.5323e-12 0.00137124 3.31294e-11 0.00137123)
(0.00137124 -0.000311256 -3.93541e-13 0.00137123 4.18375e-11 0.00137123)
(0.00132901 -0.000242411 -1.2412e-12 0.00132901 3.2107e-11 0.00132901)
(0.00132896 -0.0002424 -2.64643e-12 0.00132896 1.78164e-11 0.00132896)
(0.00132892 -0.000242388 -1.51206e-12 0.00132891 -1.40378e-11 0.00132892)
(0.00132891 -0.000242382 1.87417e-12 0.0013289 -2.68202e-11 0.00132891)
(0.00132892 -0.000241694 -2.88152e-13 0.00132892 -3.52542e-11 0.00132892)
(0.00132895 -0.000241706 -1.12713e-12 0.00132896 -3.16873e-11 0.00132895)
(0.001329 -0.000241723 2.66571e-13 0.00132901 -1.40561e-11 0.001329)
(0.00132903 -0.000241732 2.18129e-12 0.00132903 1.10965e-11 0.00132903)
(0.00132903 -0.000241732 2.77517e-12 0.00132903 3.27591e-11 0.00132903)
(0.001329 -0.000241722 -2.81824e-13 0.001329 4.25664e-11 0.001329)
(0.00129735 -0.000172878 -1.24109e-12 0.00129735 3.45378e-11 0.00129735)
(0.00129727 -0.00017286 -2.8066e-12 0.00129726 2.21959e-11 0.00129727)
(0.00129721 -0.000172845 -1.73015e-12 0.0012972 -1.12499e-11 0.00129721)
(0.00129722 -0.000172841 1.70273e-12 0.00129719 -2.63151e-11 0.0012972)
(0.00129725 -0.00017285 -4.47845e-13 0.00129723 -3.6964e-11 0.00129723)
(0.00129731 -0.000172169 -1.17103e-12 0.00129731 -3.50148e-11 0.00129731)
(0.00129738 -0.000172189 3.86637e-13 0.00129738 -1.79295e-11 0.00129738)
(0.00129741 -0.000172902 -2.47678e-08 0.00129743 7.95972e-12 0.00129743)
(0.00129741 -0.000172902 3.0333e-12 0.00129743 3.13461e-11 0.00129743)
(0.00129737 -0.000172888 -1.45898e-13 0.00129738 4.32101e-11 0.00129737)
(0.00127629 -0.000103679 -1.20019e-12 0.0012763 3.79852e-11 0.00127629)
(0.00127617 -0.000103663 -2.94197e-12 0.00127617 2.87232e-11 0.00127617)
(0.00127609 -0.000103649 -1.96057e-12 0.00127609 -6.37424e-12 0.00127609)
(0.00127608 -0.000103646 1.49471e-12 0.00127607 -2.4674e-11 0.00127608)
(0.00127616 -0.000103655 -6.41188e-13 0.00127613 -3.86801e-11 0.00127614)
(0.00127627 -0.000103672 -2.49571e-08 0.00127624 -3.93756e-11 0.00127625)
(0.00127634 -0.000103691 4.95218e-13 0.00127636 -2.35118e-11 0.00127636)
(0.00127641 -0.000103702 2.6638e-12 0.00127643 3.03613e-12 0.00127643)
(0.00127643 -0.000102998 3.30826e-12 0.00127644 2.8695e-11 0.00127643)
(0.00127635 -0.000103692 2.29138e-14 0.00127636 4.36529e-11 0.00127635)
(0.00126581 -3.47022e-05 -1.10597e-12 0.00126581 4.23193e-11 0.00126581)
(0.00126565 -3.46943e-05 -3.04265e-12 0.00126565 3.73254e-11 0.00126565)
(0.00126554 -3.4688e-05 -2.20395e-12 0.00126553 6.83178e-13 0.00126554)
(0.00126554 -3.4686e-05 1.2417e-12 0.00126551 -2.16843e-11 0.00126552)
(0.00126562 -3.39819e-05 -2.50527e-08 0.00126559 -4.0168e-11 0.0012656)
(0.00126575 -3.46978e-05 -1.33704e-12 0.00126574 -4.46401e-11 0.00126575)
(0.00126589 -3.47061e-05 5.8668e-13 0.00126589 -3.08017e-11 0.00126589)
(0.00126599 -3.40037e-05 2.90622e-12 0.001266 -3.81153e-12 0.00126599)
(0.00126597 -3.40043e-05 -2.50643e-08 0.00126601 2.45953e-11 0.00126599)
(0.00126588 -3.47081e-05 2.3293e-13 0.00126591 4.36966e-11 0.0012659)
(0.00126586 3.4705e-05 -9.47307e-13 0.00126587 4.72613e-11 0.00126586)
(0.00126565 3.46948e-05 -3.0993e-12 0.00126566 4.77017e-11 0.00126565)
(0.00126551 3.46869e-05 -2.45928e-12 0.00126551 9.86963e-12 0.00126551)
(0.00126551 3.4685e-05 9.37952e-13 0.00126547 -1.71572e-11 0.00126549)
(0.0012656 3.39817e-05 -2.50522e-08 0.00126556 -4.1126e-11 0.00126558)
(0.00126576 3.46992e-05 -1.47299e-12 0.00126575 -5.05378e-11 0.00126576)
(0.00126595 3.47098e-05 6.54553e-13 0.00126595 -3.96746e-11 0.00126595)
(0.00126609 3.47174e-05 3.1447e-12 0.00126609 -1.26251e-11 0.00126609)
(0.00126608 3.47185e-05 3.91389e-12 0.00126611 1.88628e-11 0.0012661)
(0.00126597 3.4713e-05 4.91477e-13 0.00126601 4.30618e-11 0.00126599)
(0.00127646 0.000103711 -7.15482e-13 0.00127647 5.24147e-11 0.00127646)
(0.00127621 0.000103673 -2.49593e-08 0.00127621 5.93855e-11 0.00127621)
(0.00127603 0.000103643 -2.49515e-08 0.00127602 2.10046e-11 0.00127603)
(0.00127598 0.000103633 5.81278e-13 0.00127597 -1.09337e-11 0.00127598)
(0.00127611 0.000103648 -1.49456e-12 0.00127607 -4.1204e-11 0.00127609)
(0.00127631 0.00010368 -1.65416e-12 0.00127628 -5.66911e-11 0.00127629)
(0.00127653 0.000104425 6.91766e-13 0.00127653 -4.98564e-11 0.00127653)
(0.00127671 0.000104454 3.37532e-12 0.00127671 -2.33308e-11 0.00127671)
(0.00127672 0.000103756 4.24651e-12 0.00127675 1.13566e-11 0.00127674)
(0.00127661 0.000104445 8.04314e-13 0.00127664 4.14219e-11 0.00127663)
(0.00129761 0.000172965 -4.04584e-13 0.00129765 5.73031e-11 0.00129763)
(0.00129733 0.000172891 -3.0509e-12 0.00129734 7.17769e-11 0.00129733)
(0.00129711 0.000172129 -2.99204e-12 0.0012971 3.37748e-11 0.00129711)
(0.00129705 0.000172802 1.73213e-13 0.00129701 -2.93424e-12 0.00129703)
(0.00129715 0.000172825 -2.47612e-08 0.00129711 -4.00496e-11 0.00129713)
(0.00129739 0.000172886 -1.88814e-12 0.00129736 -6.26417e-11 0.00129737)
(0.00129768 0.000172963 6.90876e-13 0.00129765 -6.09644e-11 0.00129766)
(0.00129786 0.000173724 -2.47841e-08 0.00129788 -3.57489e-11 0.00129788)
(0.00129793 0.000173046 4.5999e-12 0.00129796 1.99559e-12 0.00129795)
(0.00129781 0.00017372 1.17541e-12 0.00129785 3.84532e-11 0.00129783)
(0.0013294 0.000242582 -1.1386e-14 0.00132944 6.14344e-11 0.00132942)
(0.00132905 0.000241769 -2.93516e-12 0.00132908 8.42238e-11 0.00132907)
(0.00132879 0.000241665 -3.25786e-12 0.00132879 4.77737e-11 0.00132879)
(0.00132869 0.000241616 -2.8135e-13 0.00132866 6.83948e-12 0.00132867)
(0.00132879 0.000241642 -2.34167e-12 0.00132875 -3.73434e-11 0.00132877)
(0.00132905 0.000241733 -2.18227e-12 0.00132901 -6.79051e-11 0.00132903)
(0.00132939 0.000241853 6.4436e-13 0.00132935 -7.25247e-11 0.00132937)
(0.00132964 0.000241956 -2.45285e-08 0.00132964 -4.95792e-11 0.00132964)
(0.00132973 0.000242694 4.97418e-12 0.00132976 -9.19623e-12 0.00132975)
(0.00132963 0.000242665 1.60695e-12 0.00132967 3.38734e-11 0.00132965)
(0.00137177 0.000311538 4.65188e-13 0.00137183 6.43618e-11 0.00137181)
(0.0013714 0.000311372 -2.75363e-12 0.00137143 9.60934e-11 0.00137141)
(0.00137107 0.000311216 -3.51312e-12 0.00137108 6.25433e-11 0.00137107)
(0.00137093 0.000310449 -7.74951e-13 0.0013709 1.83026e-11 0.00137091)
(0.001371 0.000311155 -2.85623e-12 0.00137096 -3.28418e-11 0.00137099)
(0.00137128 0.000310588 -2.54336e-12 0.00137124 -7.20183e-11 0.00137127)
(0.00137166 0.000311441 5.44772e-13 0.00137163 -8.4027e-11 0.00137165)
(0.00137198 0.000311596 3.97869e-12 0.00137198 -6.44452e-11 0.00137198)
(0.00137214 0.000312362 5.36877e-12 0.00137215 -2.20972e-11 0.00137214)
(0.00137204 0.000311652 2.09941e-12 0.00137208 2.74884e-11 0.00137206)
(0.0014247 0.000381149 1.02464e-12 0.00142475 6.57078e-11 0.00142472)
(0.00142427 0.000380934 -2.50369e-12 0.00142431 1.06705e-10 0.00142429)
(0.00142386 0.000380041 -3.74882e-12 0.00142389 7.76191e-11 0.00142388)
(0.00142368 0.000379913 -1.29842e-12 0.00142365 3.12718e-11 0.00142366)
(0.00142372 0.000379921 -3.43136e-12 0.00142369 -2.64047e-11 0.00142371)
(0.00142401 0.000380061 -2.97721e-12 0.00142397 -7.45974e-11 0.00142399)
(0.00142446 0.000380282 3.85017e-13 0.0014244 -9.49663e-11 0.00142442)
(0.00142484 0.000381174 4.13542e-12 0.00142481 -7.9901e-11 0.00142482)
(0.00142502 0.000381299 5.78185e-12 0.00142504 -3.64843e-11 0.00142503)
(0.00142495 0.000381289 2.6517e-12 0.00142501 1.922e-11 0.00142499)
(0.0014879 0.000450857 1.6644e-12 0.00148797 6.52098e-11 0.00148794)
(0.00148742 0.000449922 -2.18288e-12 0.00148749 1.16224e-10 0.00148746)
(0.00148698 0.00044964 -3.95445e-12 0.00148701 9.25158e-11 0.00148699)
(0.00148672 0.000449454 -1.84149e-12 0.0014867 4.54829e-11 0.00148671)
(0.00148673 0.000448774 -4.06495e-12 0.00148669 -1.80046e-11 0.00148671)
(0.00148702 0.0004496 -3.48814e-12 0.00148698 -7.53367e-11 0.00148701)
(0.0014875 0.000449865 1.58569e-13 0.00148744 -1.04878e-10 0.00148747)
(0.00148795 0.000449485 4.26121e-12 0.00148792 -9.54696e-11 0.00148793)
(0.00148821 0.000450334 6.20992e-12 0.00148822 -5.20299e-11 0.00148821)
(0.00148819 0.000450348 3.26097e-12 0.00148823 9.10244e-12 0.00148821)
(0.00156107 0.000519563 2.38537e-12 0.00156112 6.27127e-11 0.00156109)
(0.00156054 0.000519249 -1.78902e-12 0.0015606 1.24145e-10 0.00156057)
(0.00156003 0.000518908 -4.12414e-12 0.00156006 1.0691e-10 0.00156005)
(0.00155969 0.000518659 -2.39315e-12 0.00155969 6.06048e-11 0.00155969)
(0.00155966 0.000517948 -4.75275e-12 0.00155963 -7.72951e-12 0.00155965)
(0.00155996 0.000518769 -4.07811e-12 0.0015599 -7.40437e-11 0.00155993)
(0.00156044 0.000519088 -1.40032e-13 0.0015604 -1.13353e-10 0.00156043)
(0.00156097 0.000519438 4.3498e-12 0.00156094 -1.10655e-10 0.00156095)
(0.00156131 0.000519687 6.64724e-12 0.00156131 -6.83341e-11 0.00156131)
(0.00156134 0.000519741 3.92228e-12 0.00156137 -2.69848e-12 0.00156135)
(0.00164362 0.00058884 3.18083e-12 0.00164368 5.8112e-11 0.00164365)
(0.00164308 0.000588486 -1.31983e-12 0.00164314 1.39213e-10 0.00164311)
(0.00164251 0.000588075 -4.24599e-12 0.00164255 1.20544e-10 0.00164253)
(0.0016421 0.000587756 -2.94248e-12 0.0016421 7.6196e-11 0.0016421)
(0.00164201 0.000587657 -5.48812e-12 0.00164198 4.21647e-12 0.00164199)
(0.00164229 0.000587815 -4.74643e-12 0.00164223 -7.06456e-11 0.00164225)
(0.00164281 0.000588169 -5.14648e-13 0.00164274 -1.20047e-10 0.00164277)
(0.00164338 0.00058924 4.39453e-12 0.00164335 -1.24964e-10 0.00164337)
(0.00164379 0.000588909 7.08591e-12 0.00164379 -8.4924e-11 0.00164379)
(0.00164388 0.000589664 4.62819e-12 0.00164391 -1.59084e-11 0.0016439)
(0.00173495 0.000658748 4.10626e-12 0.00173501 5.16348e-11 0.00173498)
(0.00173439 0.000658364 -7.7333e-13 0.00173446 1.3284e-10 0.00173443)
(0.00173376 0.000657887 2.27298e-08 0.0017338 1.33633e-10 0.00173378)
(0.00173328 0.000657499 -3.47836e-12 0.00173329 9.20115e-11 0.00173328)
(0.00173313 0.000657345 -6.26118e-12 0.0017331 1.75552e-11 0.00173311)
(0.00173337 0.000656848 -5.4888e-12 0.00173331 -6.51593e-11 0.00173334)
(0.00173391 0.000657234 -9.6684e-13 0.00173385 -1.24697e-10 0.00173388)
(0.00173454 0.000657715 -2.2746e-08 0.0017345 -1.37922e-10 0.00173452)
(0.00173503 0.000658752 7.51603e-12 0.00173502 -1.01287e-10 0.00173503)
(0.00173518 0.000658911 5.36793e-12 0.00173521 -3.01618e-11 0.0017352)
(0.00183431 0.000729178 4.96202e-12 0.00183437 4.32658e-11 0.00183434)
(0.00183375 0.000728774 2.25026e-08 0.00183381 1.33054e-10 0.00183378)
(0.00183306 0.00072824 2.2482e-08 0.00183311 1.42999e-10 0.00183308)
(0.00183251 0.00072714 -3.99275e-12 0.00183252 1.07388e-10 0.00183251)
(0.00183227 0.000726923 -7.06063e-12 0.00183226 3.19373e-11 0.00183227)