/*--------------------------------*- C++ -*----------------------------------*\
| =========                 |                                                 |
| \\      /  F ield         | OpenFOAM: The Open Source CFD Toolbox           |
|  \\    /   O peration     | Version:  2.3.0                                 |
|   \\  /    A nd           | Web:      www.OpenFOAM.org                      |
|    \\/     M anipulation  |                                                 |
\*---------------------------------------------------------------------------*/
FoamFile
{
    version     2.0;
    format      ascii;
    class       volVectorField;
    location    "400";
    object      U;
}
// * * * * * * * * * * * * * * * * * * * * * * * * * * * * * * * * * * * * * //

dimensions      [0 1 -1 0 0 0 0];

internalField   nonuniform List<vector> 
6000
(
(0.647369 -1.32893e-08 2.31902e-09)
(0.647373 -4.31226e-08 6.32097e-09)
(0.647379 -4.97612e-08 1.25595e-09)
(0.647384 -3.84076e-08 -4.00684e-09)
(0.647387 -1.58423e-08 -2.6062e-09)
(0.647386 1.53635e-08 8.12364e-10)
(0.647383 4.03253e-08 1.90079e-09)
(0.647377 4.89962e-08 2.19337e-10)
(0.647372 3.76415e-08 -2.02183e-09)
(0.647369 1.86142e-08 -2.39425e-09)
(0.76604 -4.68822e-08 1.43207e-09)
(0.766044 -9.86548e-08 3.42893e-09)
(0.766049 -1.03224e-07 7.15241e-10)
(0.766052 -7.02632e-08 -3.87401e-09)
(0.766053 -1.58046e-08 -2.83164e-09)
(0.766051 4.89321e-08 5.78689e-10)
(0.766047 9.44826e-08 1.99133e-09)
(0.766043 1.03119e-07 5.07021e-10)
(0.766039 6.96938e-08 -1.87245e-09)
(0.766038 1.9352e-08 -2.56769e-09)
(0.829871 -8.9189e-08 1.04666e-09)
(0.829875 -1.50075e-07 1.96325e-09)
(0.829878 -1.41726e-07 7.80566e-10)
(0.829879 -8.29002e-08 -3.30357e-09)
(0.829878 1.54623e-09 -2.7799e-09)
(0.829875 8.9044e-08 2.40854e-10)
(0.829871 1.44039e-07 1.74307e-09)
(0.829868 1.43656e-07 5.50975e-10)
(0.829866 8.42394e-08 -1.67566e-09)
(0.829868 2.12157e-09 -2.45927e-09)
(0.873427 -1.37896e-07 9.19289e-10)
(0.873431 -1.92405e-07 1.2283e-09)
(0.873433 -1.6145e-07 1.05995e-09)
(0.873432 -7.34554e-08 -2.68093e-09)
(0.87343 3.73772e-08 -2.64692e-09)
(0.873426 1.36219e-07 -9.14639e-11)
(0.873423 1.86658e-07 1.39507e-09)
(0.873421 1.65381e-07 4.81804e-10)
(0.873421 7.54751e-08 -1.50339e-09)
(0.873423 -3.53199e-08 -2.25789e-09)
(0.906476 -1.84968e-07 9.27095e-10)
(0.906479 -2.22553e-07 8.87399e-10)
(0.90648 -1.63937e-07 1.39617e-09)
(0.906478 -4.83199e-08 -2.11299e-09)
(0.906475 8.05015e-08 -2.50082e-09)
(0.906471 1.81563e-07 -3.94016e-10)
(0.906469 2.17721e-07 1.03004e-09)
(0.906468 1.7007e-07 3.63912e-10)
(0.906469 5.0975e-08 -1.35714e-09)
(0.906472 -8.04569e-08 -2.03041e-09)
(0.93315 -2.2654e-07 1.00019e-09)
(0.933152 -2.40583e-07 7.54053e-10)
(0.933152 -1.52666e-07 1.71721e-09)
(0.93315 -1.30247e-08 -1.63285e-09)
(0.933146 1.2635e-07 -2.36707e-09)
(0.933143 2.21447e-07 -6.59412e-10)
(0.933141 2.36874e-07 6.85115e-10)
(0.933141 1.6096e-07 2.32356e-10)
(0.933143 1.61976e-08 -1.23034e-09)
(0.933146 -1.28399e-07 -1.80458e-09)
(0.955545 -2.60472e-07 1.09649e-09)
(0.955546 -2.47569e-07 7.21362e-10)
(0.955545 -1.31188e-07 1.99054e-09)
(0.955542 2.7821e-08 -1.24493e-09)
(0.955539 1.71135e-07 -2.25422e-09)
(0.955536 2.53904e-07 -8.85111e-10)
(0.955535 2.45015e-07 3.78433e-10)
(0.955536 1.41451e-07 1.06812e-10)
(0.955538 -2.43e-08 -1.11841e-09)
(0.955542 -1.75159e-07 -1.59363e-09)
(0.974859 -2.85733e-07 1.19072e-09)
(0.97486 -2.44877e-07 7.28584e-10)
(0.974858 -1.02609e-07 2.2043e-09)
(0.974855 7.06011e-08 -9.43966e-10)
(0.974852 2.12023e-07 -2.16276e-09)
(0.97485 2.77997e-07 -1.07056e-09)
(0.974849 2.43448e-07 1.18496e-10)
(0.974851 1.14568e-07 -2.05291e-12)
(0.974854 -6.69305e-08 -1.0188e-09)
(0.974857 -2.17822e-07 -1.40621e-09)
(0.991838 -3.01978e-07 1.2676e-09)
(0.991838 -2.33982e-07 7.41358e-10)
(0.991836 -6.96133e-08 2.35739e-09)
(0.991833 1.12466e-07 -7.19261e-10)
(0.99183 2.47028e-07 -2.08951e-09)
(0.991828 2.93388e-07 -1.21614e-09)
(0.991829 2.3361e-07 -9.16051e-11)
(0.991831 8.29776e-08 -8.91281e-11)
(0.991834 -1.0883e-07 -9.30278e-10)
(0.991837 -2.54368e-07 -1.24758e-09)
(1.00697 -3.09341e-07 1.31809e-09)
(1.00697 -2.16388e-07 7.40772e-10)
(1.00697 -3.45017e-08 2.45407e-09)
(1.00697 1.51192e-07 -5.58299e-10)
(1.00697 2.74824e-07 -2.02959e-09)
(1.00696 3.00169e-07 -1.32279e-09)
(1.00696 2.16984e-07 -2.52066e-10)
(1.00697 4.89988e-08 -1.52889e-10)
(1.00697 -1.47729e-07 -8.52695e-10)
(1.00697 -2.83471e-07 -1.12092e-09)
(1.02061 -3.08306e-07 1.3373e-09)
(1.0206 -1.93579e-07 7.17193e-10)
(1.0206 7.94307e-10 2.50147e-09)
(1.0206 1.85116e-07 -4.48297e-10)
(1.0206 2.94635e-07 -1.97758e-09)
(1.0206 2.98753e-07 -1.3919e-09)
(1.0206 1.95034e-07 -3.65162e-10)
(1.0206 1.45984e-08 -1.94051e-10)
(1.0206 -1.819e-07 -7.86677e-10)
(1.0206 -3.04368e-07 -1.02809e-09)
(1.03298 -2.99603e-07 1.32318e-09)
(1.03297 -1.6696e-07 6.66695e-10)
(1.03297 3.47157e-08 2.50796e-09)
(1.03297 2.13083e-07 -3.77222e-10)
(1.03297 3.06139e-07 -1.92829e-09)
(1.03297 2.89786e-07 -1.4253e-09)
(1.03297 1.69143e-07 -4.34498e-10)
(1.03297 -1.86136e-08 -2.14815e-10)
(1.03297 -2.10118e-07 -7.33285e-10)
(1.03298 -3.16755e-07 -9.69847e-10)
(1.04426 -2.84129e-07 1.27571e-09)
(1.04426 -1.37812e-07 5.8894e-10)
(1.04426 6.60656e-08 2.48194e-09)
(1.04426 2.344e-07 -3.34261e-10)
(1.04426 3.09396e-07 -1.87718e-09)
(1.04426 2.74072e-07 -1.42527e-09)
(1.04426 1.40576e-07 -4.64519e-10)
(1.04426 -4.93849e-08 -2.18273e-10)
(1.04426 -2.31612e-07 -6.93738e-10)
(1.04426 -3.20714e-07 -9.46105e-10)
(1.0546 -2.62876e-07 1.19637e-09)
(1.0546 -1.07258e-07 4.85855e-10)
(1.05459 9.39976e-08 2.43152e-09)
(1.05459 2.48779e-07 -3.10012e-10)
(1.05459 3.04778e-07 -1.82053e-09)
(1.05459 2.52514e-07 -1.39444e-09)
(1.0546 1.10441e-07 -4.60162e-10)
(1.0546 -7.68108e-08 -2.07985e-10)
(1.0546 -2.46025e-07 -6.69192e-10)
(1.0546 -3.16643e-07 -9.56002e-10)
(1.06408 -2.36881e-07 1.08775e-09)
(1.06408 -7.62407e-08 3.60794e-10)
(1.06408 1.17998e-07 2.36427e-09)
(1.06408 2.56296e-07 -2.96566e-10)
(1.06408 2.92912e-07 -1.75561e-09)
(1.06408 2.26065e-07 -1.33582e-09)
(1.06408 7.9672e-08 -4.26594e-10)
(1.06408 -1.00321e-07 -1.87656e-10)
(1.06408 -2.53367e-07 -6.60577e-10)
(1.06408 -3.05198e-07 -9.98e-10)
(1.07279 -2.07186e-07 9.53241e-10)
(1.07279 -4.55086e-08 2.17979e-10)
(1.07278 1.3787e-07 2.28702e-09)
(1.07278 2.57345e-07 -2.87496e-10)
(1.07278 2.74631e-07 -1.68062e-09)
(1.07279 1.95688e-07 -1.25273e-09)
(1.07279 4.90159e-08 -3.68997e-10)
(1.07279 -1.19664e-07 -1.6088e-10)
(1.07279 -2.53979e-07 -6.68479e-10)
(1.07279 -2.87243e-07 -1.06995e-09)
(1.08077 -1.74799e-07 7.96788e-10)
(1.08077 -1.56082e-08 6.20645e-11)
(1.08077 1.53708e-07 2.20577e-09)
(1.08077 2.52605e-07 -2.77797e-10)
(1.08077 2.50934e-07 -1.5947e-09)
(1.08077 1.62337e-07 -1.14866e-09)
(1.08078 1.90272e-08 -2.92376e-10)
(1.08078 -1.34888e-07 -1.30928e-10)
(1.08078 -2.48503e-07 -6.9303e-10)
(1.08078 -2.63813e-07 -1.16914e-09)
(1.08808 -1.40678e-07 6.22668e-10)
(1.08808 1.31147e-08 -1.02139e-10)
(1.08807 1.65883e-07 2.12561e-09)
(1.08807 2.43004e-07 -2.63802e-10)
(1.08808 2.22958e-07 -1.4978e-09)
(1.08808 1.26932e-07 -1.02721e-09)
(1.08808 -9.93176e-09 -2.01381e-10)
(1.08808 -1.46324e-07 -1.00574e-10)
(1.08808 -2.37851e-07 -7.33824e-10)
(1.08808 -2.36081e-07 -1.2924e-09)
(1.09474 -1.05713e-07 4.35281e-10)
(1.09473 4.05053e-08 -2.70066e-10)
(1.09473 1.75015e-07 2.05067e-09)
(1.09473 2.29696e-07 -2.43086e-10)
(1.09473 1.91956e-07 -1.39058e-09)
(1.09474 9.0358e-08 -8.91915e-10)
(1.09474 -3.76806e-08 -1.00127e-10)
(1.09474 -1.54568e-07 -7.19323e-11)
(1.09474 -2.23186e-07 -7.89867e-10)
(1.09474 -2.05333e-07 -1.43615e-09)
(1.10076 -7.07341e-08 2.38915e-10)
(1.10076 6.65782e-08 -4.37653e-10)
(1.10076 1.81945e-07 1.98396e-09)
(1.10076 2.14036e-07 -2.14359e-10)
(1.10076 1.59294e-07 -1.27423e-09)
(1.10077 5.34717e-08 -7.46041e-10)
(1.10077 -6.42022e-08 7.98702e-12)
(1.10077 -1.60455e-07 -4.63235e-11)
(1.10077 -2.05902e-07 -8.59543e-10)
(1.10077 -1.72962e-07 -1.59653e-09)
(1.10618 -3.65243e-08 3.74842e-11)
(1.10618 9.14807e-08 -6.01704e-10)
(1.10618 1.87699e-07 1.92732e-09)
(1.10618 1.97557e-07 -1.77366e-10)
(1.10618 1.2644e-07 -1.15026e-09)
(1.10618 1.71173e-08 -5.92422e-10)
(1.10619 -8.96099e-08 1.20463e-10)
(1.10619 -1.65022e-07 -2.41479e-11)
(1.10619 -1.87596e-07 -9.40613e-10)
(1.10618 -1.40454e-07 -1.76953e-09)
(1.111 -3.8541e-09 -1.65742e-10)
(1.111 1.15438e-07 -7.6019e-10)
(1.111 1.93433e-07 1.88118e-09)
(1.111 1.81941e-07 -1.32799e-10)
(1.111 9.49726e-08 -1.02033e-09)
(1.111 -1.78404e-08 -4.33226e-10)
(1.11101 -1.14098e-07 2.3588e-10)
(1.11101 -1.69461e-07 -4.78813e-12)
(1.11101 -1.70039e-07 -1.03024e-09)
(1.111 -1.0939e-07 -1.95115e-09)
(1.11523 2.64705e-08 -3.68394e-10)
(1.11523 1.3868e-07 -9.12606e-10)
(1.11523 2.00365e-07 1.84448e-09)
(1.11523 1.68968e-07 -8.22185e-11)
(1.11523 6.65684e-08 -8.86037e-10)
(1.11524 -5.04781e-08 -2.69762e-10)
(1.11524 -1.37869e-07 3.54072e-10)
(1.11524 -1.75039e-07 1.34595e-11)
(1.11524 -1.55115e-07 -1.12505e-09)
(1.11524 -8.14352e-08 -2.13759e-09)
(1.11889 5.35514e-08 -5.69231e-10)
(1.11889 1.61345e-07 -1.06034e-09)
(1.11889 2.09663e-07 1.8145e-09)
(1.11889 1.60442e-07 -2.79378e-11)
(1.11889 4.29848e-08 -7.48763e-10)
(1.11889 -7.97723e-08 -1.02307e-10)
(1.11889 -1.61044e-07 4.7623e-10)
(1.11889 -1.8299e-07 3.34133e-11)
(1.11889 -1.44734e-07 -1.22121e-09)
(1.11889 -5.83245e-08 -2.32544e-09)
(1.12198 7.63457e-08 -7.68293e-10)
(1.12198 1.83377e-07 -1.20691e-09)
(1.12198 2.22329e-07 1.78677e-09)
(1.12198 1.58082e-07 2.70564e-11)
(1.12198 2.60087e-08 -6.09519e-10)
(1.12198 -1.04567e-07 6.99826e-11)
(1.12198 -1.8356e-07 6.0494e-10)
(1.12198 -1.94375e-07 5.899e-11)
(1.12198 -1.40701e-07 -1.31451e-09)
(1.12198 -4.18129e-08 -2.51183e-09)
(1.12452 9.36335e-08 -9.66914e-10)
(1.12452 2.04416e-07 -1.35796e-09)
(1.12452 2.39042e-07 1.75516e-09)
(1.12452 1.63381e-07 7.91716e-11)
(1.12452 1.73748e-08 -4.6897e-10)
(1.12452 -1.23565e-07 2.49053e-10)
(1.12452 -2.05063e-07 7.4415e-10)
(1.12452 -2.09926e-07 9.51437e-11)
(1.12453 -1.44566e-07 -1.40045e-09)
(1.12453 -3.36023e-08 -2.69448e-09)
(1.12653 1.04021e-07 -1.1676e-09)
(1.12653 2.23716e-07 -1.52113e-09)
(1.12653 2.60014e-07 1.71203e-09)
(1.12653 1.77446e-07 1.24256e-10)
(1.12653 1.86525e-08 -3.27433e-10)
(1.12653 -1.35345e-07 4.37816e-10)
(1.12653 -2.24826e-07 8.99025e-10)
(1.12653 -2.29883e-07 1.47773e-10)
(1.12653 -1.57443e-07 -1.47424e-09)
(1.12653 -3.52311e-08 -2.87164e-09)
(1.12802 1.05989e-07 -1.37369e-09)
(1.12802 2.40103e-07 -1.70562e-09)
(1.12802 2.8487e-07 1.64852e-09)
(1.12802 2.00836e-07 1.57608e-10)
(1.12801 3.11102e-08 -1.85207e-10)
(1.12801 -1.38423e-07 6.39885e-10)
(1.12801 -2.41709e-07 1.07572e-09)
(1.12801 -2.53873e-07 2.23615e-10)
(1.12802 -1.79844e-07 -1.53077e-09)
(1.12802 -4.79447e-08 -3.04191e-09)
(1.129 9.79862e-08 -1.58898e-09)
(1.129 2.51985e-07 -1.92148e-09)
(1.129 3.12574e-07 1.55496e-09)
(1.129 2.33437e-07 1.7395e-10)
(1.129 5.55777e-08 -4.26163e-11)
(1.12899 -1.31344e-07 8.59207e-10)
(1.12899 -2.5417e-07 1.28108e-09)
(1.129 -2.80836e-07 3.30136e-10)
(1.129 -2.11555e-07 -1.5645e-09)
(1.129 -7.25543e-08 -3.20386e-09)
(1.12949 7.85588e-08 -1.81712e-09)
(1.12949 2.57425e-07 -2.17882e-09)
(1.12949 3.41425e-07 1.4213e-09)
(1.12949 2.74384e-07 1.67358e-10)
(1.12948 9.233e-08 9.94069e-11)
(1.12948 -1.12793e-07 1.09962e-09)
(1.12948 -2.60334e-07 1.52231e-09)
(1.12948 -3.09026e-07 4.75411e-10)
(1.12948 -2.51571e-07 -1.5693e-09)
(1.12949 -1.09315e-07 -3.35569e-09)
(1.12949 4.64953e-08 -2.06107e-09)
(1.12949 2.5427e-07 -2.48686e-09)
(1.12949 3.69125e-07 1.23756e-09)
(1.12949 3.22049e-07 1.31196e-10)
(1.12948 1.41005e-07 2.38989e-10)
(1.12948 -8.17251e-08 1.36434e-09)
(1.12948 -2.58122e-07 1.80654e-09)
(1.12948 -3.36089e-07 6.67981e-10)
(1.12948 -2.98099e-07 -1.53826e-09)
(1.12949 -1.57846e-07 -3.49479e-09)
(1.129 9.76807e-10 -2.32254e-09)
(1.129 2.40326e-07 -2.85308e-09)
(1.129 3.92919e-07 9.94334e-10)
(1.129 3.74107e-07 5.80783e-11)
(1.129 2.00569e-07 3.72969e-10)
(1.12899 -3.74858e-08 1.65548e-09)
(1.12899 -2.45416e-07 2.1404e-09)
(1.12899 -3.59223e-07 9.16623e-10)
(1.12899 -3.48648e-07 -1.46365e-09)
(1.129 -2.17086e-07 -3.61732e-09)
(1.12802 -5.82898e-08 -2.60148e-09)
(1.12802 2.13558e-07 -3.28254e-09)
(1.12802 4.09794e-07 6.83204e-10)
(1.12802 4.27667e-07 -6.00681e-11)
(1.12801 2.69331e-07 4.96622e-10)
(1.12801 2.00794e-08 1.97352e-09)
(1.128 -2.20259e-07 2.5295e-09)
(1.128 -3.75384e-07 1.23001e-09)
(1.12801 -4.00181e-07 -1.33695e-09)
(1.12801 -2.85309e-07 -3.71794e-09)
(1.12653 -1.30962e-07 -2.89571e-09)
(1.12653 1.72306e-07 -3.77735e-09)
(1.12654 4.16717e-07 2.97271e-10)
(1.12653 4.79455e-07 -2.31792e-10)
(1.12653 3.45009e-07 6.03528e-10)
(1.12652 9.05444e-08 2.31692e-09)
(1.12652 -1.81051e-07 2.97785e-09)
(1.12651 -3.81539e-07 1.6162e-09)
(1.12652 -4.49327e-07 -1.14907e-09)
(1.12652 -3.60188e-07 -3.78973e-09)
(1.12452 -2.15998e-07 -3.20074e-09)
(1.12453 1.15479e-07 -4.33637e-09)
(1.12453 4.10899e-07 -1.68395e-10)
(1.12453 5.26048e-07 -4.65725e-10)
(1.12452 4.24846e-07 6.85649e-10)
(1.12452 1.72856e-07 2.6818e-09)
(1.12451 -1.26747e-07 3.48734e-09)
(1.12451 -3.74933e-07 2.08202e-09)
(1.12451 -4.92623e-07 -8.90916e-10)
(1.12451 -4.38912e-07 -3.82437e-09)
(1.12198 -3.11654e-07 -3.50988e-09)
(1.12198 4.27104e-08 -4.95521e-09)
(1.12199 3.90033e-07 -7.16373e-10)
(1.12199 5.6411e-07 -7.70043e-10)
(1.12198 5.05752e-07 7.33667e-10)
(1.12198 2.65333e-07 3.06193e-09)
(1.12197 -5.69981e-08 4.05725e-09)
(1.12196 -3.5333e-07 2.63237e-09)
(1.12196 -5.26766e-07 -5.5398e-10)
(1.12197 -5.18335e-07 -3.8126e-09)
(1.11888 -4.15529e-07 -3.81455e-09)
(1.11889 -4.55451e-08 -5.62551e-09)
(1.1189 3.52497e-07 -1.3466e-09)
(1.1189 5.90619e-07 -1.15183e-09)
(1.11889 5.84475e-07 7.37552e-10)
(1.11889 3.65711e-07 3.44891e-09)
(1.11888 2.77489e-08 4.68406e-09)
(1.11887 -3.15205e-07 3.26961e-09)
(1.11887 -5.48837e-07 -1.31194e-10)
(1.11887 -5.95152e-07 -3.74487e-09)
(1.11522 -5.24665e-07 -4.10481e-09)
(1.11523 -1.47987e-07 -6.34206e-09)
(1.11524 2.97487e-07 -2.05621e-09)
(1.11524 6.03052e-07 -1.61642e-09)
(1.11524 6.57761e-07 6.87299e-10)
(1.11523 4.7123e-07 3.83269e-09)
(1.11522 1.26233e-07 5.36146e-09)
(1.11522 -2.59873e-07 3.99309e-09)
(1.11521 -5.56475e-07 3.8233e-10)
(1.11522 -6.66064e-07 -3.61223e-09)
(1.11099 -6.35684e-07 -4.37022e-09)
(1.111 -2.62514e-07 -7.0912e-09)
(1.11101 2.25072e-07 -2.84064e-09)
(1.11101 5.99506e-07 -2.16701e-09)
(1.11101 7.22501e-07 5.7369e-10)
(1.111 5.7874e-07 4.20226e-09)
(1.11099 2.3642e-07 6.0807e-09)
(1.11098 -1.87519e-07 4.79902e-09)
(1.11098 -5.47983e-07 9.88683e-10)
(1.11098 -7.27936e-07 -3.40709e-09)
(1.10617 -7.4494e-07 -4.59989e-09)
(1.10618 -3.86322e-07 -7.93428e-09)
(1.10619 1.36177e-07 -3.69345e-09)
(1.10619 5.78761e-07 -2.80384e-09)
(1.10619 7.75845e-07 3.88996e-10)
(1.10618 6.84836e-07 4.54643e-09)
(1.10617 3.55599e-07 6.83113e-09)
(1.10616 -9.91765e-08 5.68053e-09)
(1.10616 -5.22366e-07 1.68679e-09)
(1.10616 -7.77915e-07 -3.12403e-09)
(1.10075 -8.48672e-07 -4.78578e-09)
(1.10076 -5.16022e-07 -8.63714e-09)
(1.10077 3.25185e-08 -4.61066e-09)
(1.10077 5.40296e-07 -3.52655e-09)
(1.10077 8.15283e-07 1.27394e-10)
(1.10077 7.85977e-07 4.85455e-09)
(1.10076 4.80502e-07 7.60091e-09)
(1.10075 3.35783e-09 6.62805e-09)
(1.10074 -4.79329e-07 2.47231e-09)
(1.10074 -8.13518e-07 -2.76022e-09)
(1.09471 -9.43135e-07 -4.91798e-09)
(1.09472 -6.47803e-07 -9.47804e-09)
(1.09473 -8.34904e-08 -5.56048e-09)
(1.09474 4.84263e-07 -4.32899e-09)
(1.09474 8.38707e-07 -2.14802e-10)
(1.09474 8.78606e-07 5.11715e-09)
(1.09473 6.07444e-07 8.37766e-09)
(1.09472 1.17621e-07 7.62977e-09)
(1.09471 -4.19233e-07 3.33774e-09)
(1.09471 -8.32693e-07 -2.31579e-09)
(1.08806 -1.02472e-06 -4.99225e-09)
(1.08806 -7.77552e-07 -1.01536e-08)
(1.08808 -2.08847e-07 -6.55283e-09)
(1.08808 4.11454e-07 -5.20739e-09)
(1.08809 8.44453e-07 -6.38938e-10)
(1.08808 9.59257e-07 5.32639e-09)
(1.08808 7.3245e-07 9.14915e-09)
(1.08807 2.40599e-07 8.67227e-09)
(1.08806 -3.43051e-07 4.27271e-09)
(1.08805 -8.33859e-07 -1.79385e-09)
(1.08075 -1.09006e-06 -5.00306e-09)
(1.08076 -9.00984e-07 -1.08773e-08)
(1.08077 -3.40062e-07 -7.57107e-09)
(1.08078 3.23262e-07 -6.15306e-09)
(1.08078 8.31344e-07 -1.14435e-09)
(1.08078 1.02466e-06 5.47634e-09)
(1.08077 8.51381e-07 9.90378e-09)
(1.08076 3.68823e-07 9.74094e-09)
(1.08075 -2.52321e-07 5.26437e-09)
(1.08075 -8.15945e-07 -1.20051e-09)
(1.07276 -1.13613e-06 -4.94892e-09)
(1.07277 -1.01377e-06 -1.1565e-08)
(1.07278 -4.73252e-07 -8.60284e-09)
(1.07279 2.21651e-07 -7.1585e-09)
(1.0728 7.98725e-07 -1.72859e-09)
(1.0728 1.07183e-06 5.56314e-09)
(1.07279 9.6005e-07 1.0631e-08)
(1.07278 4.98464e-07 1.08205e-08)
(1.07277 -1.49117e-07 6.2977e-09)
(1.07276 -7.78426e-07 -5.44544e-10)
(1.06406 -1.16032e-06 -4.82986e-09)
(1.06406 -1.11167e-06 -1.22098e-08)
(1.06407 -6.04232e-07 -9.63672e-09)
(1.06408 1.09128e-07 -8.21563e-09)
(1.06409 7.46518e-07 -2.3877e-09)
(1.06409 1.09817e-06 5.58504e-09)
(1.06409 1.05434e-06 1.13216e-08)
(1.06408 6.25417e-07 1.18954e-08)
(1.06407 -3.60279e-08 7.35597e-09)
(1.06406 -7.21362e-07 1.62711e-10)
(1.05457 -1.16057e-06 -4.64788e-09)
(1.05458 -1.19061e-06 -1.27985e-08)
(1.05458 -7.286e-07 -1.06632e-08)
(1.05459 -1.12714e-08 -9.31689e-09)
(1.0546 6.75277e-07 -3.11655e-09)
(1.05461 1.10161e-06 5.54249e-09)
(1.0546 1.13032e-06 1.1968e-08)
(1.0546 7.45377e-07 1.29502e-08)
(1.05459 8.38595e-08 8.42098e-09)
(1.05458 -6.45459e-07 9.07661e-10)
(1.04424 -1.13548e-06 -4.40675e-09)
(1.04424 -1.24686e-06 -1.33235e-08)
(1.04424 -8.41821e-07 -1.16743e-08)
(1.04425 -1.35987e-07 -1.04558e-08)
(1.04426 5.86256e-07 -3.90909e-09)
(1.04427 1.08066e-06 5.43815e-09)
(1.04427 1.18437e-06 1.25643e-08)
(1.04426 8.53931e-07 1.39695e-08)
(1.04425 2.06964e-07 9.47336e-09)
(1.04424 -5.52127e-07 1.67469e-09)
(1.03295 -1.08442e-06 -4.1118e-09)
(1.03295 -1.27715e-06 -1.37763e-08)
(1.03295 -9.39327e-07 -1.26638e-08)
(1.03296 -2.60962e-07 -1.1628e-08)
(1.03297 4.81485e-07 -4.75857e-09)
(1.03298 1.03461e-06 5.27694e-09)
(1.03298 1.21332e-06 1.31066e-08)
(1.03298 9.46641e-07 1.49385e-08)
(1.03297 3.29228e-07 1.04929e-08)
(1.03296 -4.43555e-07 2.4464e-09)
(1.02058 -1.00766e-06 -3.76953e-09)
(1.02058 -1.27878e-06 -1.41469e-08)
(1.02058 -1.01662e-06 -1.3628e-08)
(1.02059 -3.81659e-07 -1.28308e-08)
(1.0206 3.63844e-07 -5.6576e-09)
(1.02061 9.63636e-07 5.06616e-09)
(1.02061 1.2146e-06 1.35927e-08)
(1.02061 1.01916e-06 1.58428e-08)
(1.0206 4.4613e-07 1.14585e-08)
(1.02059 -3.22781e-07 3.20386e-09)
(1.00696 -9.06596e-07 -3.38721e-09)
(1.00695 -1.2499e-06 -1.44227e-08)
(1.00695 -1.0694e-06 -1.45658e-08)
(1.00696 -4.93073e-07 -1.40646e-08)
(1.00697 2.37145e-07 -6.59801e-09)
(1.00698 8.68966e-07 4.81564e-09)
(1.00698 1.18643e-06 1.40222e-08)
(1.00698 1.06734e-06 1.66683e-08)
(1.00698 5.52717e-07 1.23486e-08)
(1.00697 -1.93778e-07 3.92688e-09)
(0.991825 -7.83831e-07 -2.97215e-09)
(0.991817 -1.18956e-06 -1.45852e-08)
(0.991814 -1.09369e-06 -1.54782e-08)
(0.991818 -5.89784e-07 -1.53322e-08)
(0.991827 1.06204e-07 -7.57056e-09)
(0.991838 7.53033e-07 4.53791e-09)
(0.991846 1.12796e-06 1.43967e-08)
(0.991849 1.0874e-06 1.74011e-08)
(0.991845 6.43643e-07 1.3141e-08)
(0.991837 -6.15264e-08 4.59426e-09)
(0.974852 -6.43413e-07 -2.53062e-09)
(0.974841 -1.09805e-06 -1.46061e-08)
(0.974836 -1.08601e-06 -1.63674e-08)
(0.974838 -6.66015e-07 -1.66385e-08)
(0.974846 -2.30914e-08 -8.56392e-09)
(0.974857 6.19661e-07 4.24843e-09)
(0.974867 1.03955e-06 1.47186e-08)
(0.974872 1.07605e-06 1.8027e-08)
(0.974871 7.13239e-07 1.38127e-08)
(0.974863 6.7907e-08 5.18415e-09)
(0.955544 -4.91025e-07 -2.06617e-09)
(0.955532 -9.77029e-07 -1.44375e-08)
(0.955524 -1.04357e-06 -1.72339e-08)
(0.955523 -7.15708e-07 -1.7989e-08)
(0.955529 -1.43694e-07 -9.56315e-09)
(0.95554 4.74261e-07 3.96582e-09)
(0.955551 9.22926e-07 1.49902e-08)
(0.955559 1.03075e-06 1.85297e-08)
(0.955561 7.55589e-07 1.43395e-08)
(0.955555 1.87287e-07 5.67442e-09)
(0.933156 -3.34248e-07 -1.57662e-09)
(0.933143 -8.29834e-07 -1.39972e-08)
(0.933133 -9.64437e-07 -1.80709e-08)
(0.933129 -7.32577e-07 -1.93861e-08)
(0.933133 -2.47281e-07 -1.05469e-08)
(0.933142 3.241e-07 3.71181e-09)
(0.933155 7.81511e-07 1.52116e-08)
(0.933165 9.4982e-07 1.88889e-08)
(0.93317 7.64583e-07 1.46945e-08)
(0.933167 2.88105e-07 6.04294e-09)
(0.906491 -1.82838e-07 -1.04873e-09)
(0.906478 -6.61895e-07 -1.3139e-08)
(0.906465 -8.47809e-07 -1.88523e-08)
(0.906458 -7.10108e-07 -2.08205e-08)
(0.906458 -3.24059e-07 -1.14831e-08)
(0.906467 1.78546e-07 3.51049e-09)
(0.906479 6.20817e-07 1.53754e-08)
(0.906492 8.32782e-07 1.90747e-08)
(0.906499 7.33947e-07 1.48459e-08)
(0.906499 3.60328e-07 6.26816e-09)
(0.873452 -4.95813e-08 -4.47681e-10)
(0.873439 -4.81951e-07 -1.15988e-08)
(0.873424 -6.94939e-07 -1.95064e-08)
(0.873414 -6.41716e-07 -2.22519e-08)
(0.873411 -3.62126e-07 -1.23147e-08)
(0.873416 4.98714e-08 3.38564e-09)
(0.873428 4.49496e-07 1.54558e-08)
(0.873442 6.81183e-07 1.90359e-08)
(0.873453 6.57543e-07 1.47494e-08)
(0.873457 3.91903e-07 6.32884e-09)
(0.829906 4.97066e-08 3.00099e-10)
(0.829895 -3.04055e-07 -8.89471e-09)
(0.82988 -5.1189e-07 -1.98568e-08)
(0.829866 -5.22716e-07 -2.35574e-08)
(0.829858 -3.47906e-07 -1.29333e-08)
(0.829859 -4.67064e-08 3.35318e-09)
(0.829868 2.81109e-07 1.53795e-08)
(0.829883 5.01069e-07 1.86704e-08)
(0.829898 5.31468e-07 1.43313e-08)
(0.829906 3.69515e-07 6.20159e-09)
(0.766085 8.54966e-08 1.33262e-09)
(0.766079 -1.59091e-07 -4.08964e-09)
(0.766065 -3.19957e-07 -1.94451e-08)
(0.766048 -3.56075e-07 -2.43637e-08)
(0.766034 -2.64822e-07 -1.30959e-08)
(0.766029 -8.09313e-08 3.40492e-09)
(0.766034 1.41151e-07 1.49326e-08)
(0.766048 3.10264e-07 1.77319e-08)
(0.766065 3.60975e-07 1.34313e-08)
(0.766079 2.82239e-07 5.85086e-09)
(0.647419 6.43549e-08 3.0057e-09)
(0.647418 -4.58324e-08 5.07095e-09)
(0.647406 -1.28508e-07 -1.67238e-08)
(0.647388 -1.59764e-07 -2.32301e-08)
(0.647371 -1.33006e-07 -1.20654e-08)
(0.64736 -6.16417e-08 3.3035e-09)
(0.64736 3.69291e-08 1.32985e-08)
(0.647371 1.23746e-07 1.53557e-08)
(0.647388 1.61658e-07 1.14983e-08)
(0.647407 1.40994e-07 5.16113e-09)
(0.647369 -1.22147e-08 -4.38172e-10)
(0.647373 -4.2808e-08 -5.57483e-10)
(0.647379 -5.01366e-08 -3.80087e-10)
(0.647384 -3.93824e-08 2.39567e-10)
(0.647387 -1.70632e-08 6.26748e-10)
(0.647387 1.43057e-08 4.20684e-10)
(0.647383 3.98874e-08 -1.92397e-10)
(0.647378 4.93211e-08 -7.32444e-10)
(0.647372 3.85861e-08 -8.04475e-10)
(0.64737 1.96332e-08 -5.67335e-10)
(0.76604 -4.4863e-08 2.41478e-10)
(0.766044 -9.83819e-08 -2.97141e-11)
(0.766049 -1.04367e-07 -2.3851e-10)
(0.766052 -7.25542e-08 -4.00347e-11)
(0.766053 -1.83868e-08 1.56663e-10)
(0.766052 4.69844e-08 -4.84399e-11)
(0.766048 9.39336e-08 -5.15806e-10)
(0.766043 1.04173e-07 -7.80164e-10)
(0.766039 7.19345e-08 -5.55772e-10)
(0.766039 2.15476e-08 -4.80827e-11)
(0.829871 -8.66805e-08 9.18417e-10)
(0.829875 -1.50277e-07 5.63517e-10)
(0.829878 -1.43843e-07 3.24701e-11)
(0.82988 -8.64151e-08 -1.98642e-10)
(0.829878 -2.05897e-09 -2.92527e-10)
(0.829875 8.66571e-08 -5.79838e-10)
(0.829871 1.43737e-07 -9.18322e-10)
(0.829868 1.45583e-07 -8.92246e-10)
(0.829867 8.76624e-08 -3.3765e-10)
(0.829868 5.50462e-09 4.52365e-10)
(0.873427 -1.35434e-07 1.51998e-09)
(0.873431 -1.9345e-07 1.10664e-09)
(0.873433 -1.64665e-07 3.09652e-10)
(0.873432 -7.80716e-08 -3.02995e-10)
(0.87343 3.31943e-08 -6.94954e-10)
(0.873426 1.33913e-07 -1.08572e-09)
(0.873423 1.87062e-07 -1.31781e-09)
(0.873421 1.68373e-07 -1.02477e-09)
(0.873421 7.99241e-08 -1.56541e-10)
(0.873423 -3.10334e-08 9.06028e-10)
(0.906476 -1.82945e-07 2.03017e-09)
(0.906479 -2.24633e-07 1.56799e-09)
(0.90648 -1.68183e-07 5.52158e-10)
(0.906478 -5.37573e-08 -3.82999e-10)
(0.906475 7.61231e-08 -1.04364e-09)
(0.906472 1.79715e-07 -1.53611e-09)
(0.906469 2.19047e-07 -1.67799e-09)
(0.906468 1.7408e-07 -1.15002e-09)
(0.906469 5.61722e-08 -3.26223e-12)
(0.906472 -7.59751e-08 1.29733e-09)
(0.93315 -2.25212e-07 2.4452e-09)
(0.933152 -2.43758e-07 1.93829e-09)
(0.933152 -1.57786e-07 7.45717e-10)
(0.93315 -1.89391e-08 -4.51214e-10)
(0.933146 1.22118e-07 -1.33654e-09)
(0.933143 2.20316e-07 -1.91669e-09)
(0.93314 2.39195e-07 -1.98041e-09)
(0.93314 1.65844e-07 -1.25291e-09)
(0.933143 2.18414e-08 1.28869e-10)
(0.933146 -1.24116e-07 1.62331e-09)
(0.955545 -2.59999e-07 2.76419e-09)
(0.955546 -2.51801e-07 2.21609e-09)
(0.955545 -1.36971e-07 8.86801e-10)
(0.955542 2.17488e-08 -5.11179e-10)
(0.955539 1.67319e-07 -1.57248e-09)
(0.955536 2.53643e-07 -2.21936e-09)
(0.955534 2.48303e-07 -2.21554e-09)
(0.955535 1.47012e-07 -1.32583e-09)
(0.955538 -1.85119e-08 2.42611e-10)
(0.955541 -1.71327e-07 1.88423e-09)
(0.974859 -2.86187e-07 2.98819e-09)
(0.97486 -2.50065e-07 2.40377e-09)
(0.974858 -1.08826e-07 9.77072e-10)
(0.974855 6.46266e-08 -5.62643e-10)
(0.974852 2.08831e-07 -1.74931e-09)
(0.974849 2.78673e-07 -2.44006e-09)
(0.974849 2.47606e-07 -2.37928e-09)
(0.97485 1.20583e-07 -1.36602e-09)
(0.974853 -6.1271e-08 3.37955e-10)
(0.974857 -2.14662e-07 2.07902e-09)
(0.991838 -3.03358e-07 3.11977e-09)
(0.991838 -2.39971e-07 2.50604e-09)
(0.991836 -7.60277e-08 1.02099e-09)
(0.991833 1.06823e-07 -6.03196e-10)
(0.99183 2.44604e-07 -1.86547e-09)
(0.991828 2.94998e-07 -2.5776e-09)
(0.991828 2.38492e-07 -2.47125e-09)
(0.99183 8.92133e-08 -1.37396e-09)
(0.991833 -1.03534e-07 4.13793e-10)
(0.991836 -2.52029e-07 2.20732e-09)
(1.00697 -3.11592e-07 3.16281e-09)
(1.00697 -2.22996e-07 2.52923e-09)
(1.00697 -4.08823e-08 1.02445e-09)
(1.00697 1.4608e-07 -6.29547e-10)
(1.00697 2.73258e-07 -1.9202e-09)
(1.00696 3.02656e-07 -2.63309e-09)
(1.00696 2.22412e-07 -2.49387e-09)
(1.00697 5.52224e-08 -1.35229e-09)
(1.00697 -1.42995e-07 4.68328e-10)
(1.00697 -2.82044e-07 2.26954e-09)
(1.02061 -3.11332e-07 3.12246e-09)
(1.0206 -2.00603e-07 2.48079e-09)
(1.0206 -5.32417e-09 9.9427e-10)
(1.0206 1.80702e-07 -6.38189e-10)
(1.0206 2.93967e-07 -1.91375e-09)
(1.0206 3.0202e-07 -2.60963e-09)
(1.0206 2.00809e-07 -2.45164e-09)
(1.0206 2.05889e-08 -1.30507e-09)
(1.0206 -1.77892e-07 4.99518e-10)
(1.0206 -3.03895e-07 2.26696e-09)
(1.03298 -3.03277e-07 3.00499e-09)
(1.03297 -1.74191e-07 2.36898e-09)
(1.03297 2.90692e-08 9.37597e-10)
(1.03297 2.09497e-07 -6.25931e-10)
(1.03297 3.06371e-07 -1.84744e-09)
(1.03297 2.93705e-07 -2.51194e-09)
(1.03297 1.75061e-07 -2.35056e-09)
(1.03297 -1.30612e-08 -1.23721e-09)
(1.03297 -2.06964e-07 5.05426e-10)
(1.03298 -3.17238e-07 2.20175e-09)
(1.04426 -2.88304e-07 2.81763e-09)
(1.04426 -1.45043e-07 2.2026e-09)
(1.04426 6.10734e-08 8.61474e-10)
(1.04426 2.31736e-07 -5.90197e-10)
(1.04426 3.10495e-07 -1.72375e-09)
(1.04426 2.78495e-07 -2.34609e-09)
(1.04426 1.46432e-07 -2.19777e-09)
(1.04426 -4.44534e-08 -1.15406e-09)
(1.04426 -2.29407e-07 4.84498e-10)
(1.04426 -3.22122e-07 2.07711e-09)
(1.0546 -2.67395e-07 2.56846e-09)
(1.0546 -1.14291e-07 1.99074e-09)
(1.05459 8.9817e-08 7.72605e-10)
(1.05459 2.471e-07 -5.29211e-10)
(1.05459 3.06686e-07 -1.54627e-09)
(1.05459 2.57284e-07 -2.11931e-09)
(1.0546 1.16039e-07 -2.00113e-09)
(1.0546 -7.26585e-08 -1.06106e-09)
(1.0546 -2.44831e-07 4.35774e-10)
(1.0546 -3.18918e-07 1.89716e-09)
(1.06408 -2.41585e-07 2.26623e-09)
(1.06408 -8.2894e-08 1.74257e-09)
(1.06408 1.1476e-07 6.77162e-10)
(1.06408 2.55635e-07 -4.42122e-10)
(1.06408 2.95552e-07 -1.31964e-09)
(1.06408 2.31022e-07 -1.8397e-09)
(1.06408 8.48327e-08 -1.76892e-09)
(1.06408 -9.70792e-08 -9.63447e-10)
(1.06408 -2.53219e-07 3.59021e-10)
(1.06408 -3.08261e-07 1.66699e-09)
(1.07279 -2.1192e-07 1.92017e-09)
(1.07279 -5.1623e-08 1.4671e-09)
(1.07278 1.35674e-07 5.80608e-10)
(1.07278 2.57713e-07 -3.2908e-10)
(1.07278 2.77914e-07 -1.04948e-09)
(1.07279 2.0068e-07 -1.51602e-09)
(1.07279 5.35805e-08 -1.50953e-09)
(1.07279 -1.17435e-07 -8.66004e-10)
(1.07279 -2.54886e-07 2.54846e-10)
(1.07279 -2.91004e-07 1.39257e-09)
(1.08077 -1.79423e-07 1.53981e-09)
(1.08077 -2.10487e-08 1.17298e-09)
(1.08077 1.52628e-07 4.8753e-10)
(1.08077 2.53991e-07 -1.91283e-10)
(1.08077 2.54767e-07 -7.42288e-10)
(1.08077 1.67221e-07 -1.15744e-09)
(1.08078 2.28613e-08 -1.23121e-09)
(1.08078 -1.33747e-07 -7.72864e-10)
(1.08078 -2.50454e-07 1.24769e-10)
(1.08078 -2.68177e-07 1.08066e-09)
(1.08808 -1.45067e-07 1.13477e-09)
(1.08808 8.45387e-09 8.68293e-10)
(1.08807 1.65964e-07 4.01493e-10)
(1.08807 2.45379e-07 -3.09927e-11)
(1.08808 2.27249e-07 -4.05282e-10)
(1.08808 1.31586e-07 -7.73315e-10)
(1.08808 -6.93386e-09 -9.41773e-10)
(1.08808 -1.46319e-07 -6.87294e-10)
(1.08808 -2.40818e-07 -2.87251e-11)
(1.08808 -2.4095e-07 7.38703e-10)
(1.09474 -1.09769e-07 7.14462e-10)
(1.09473 3.66958e-08 5.60274e-10)
(1.09473 1.76274e-07 3.24906e-10)
(1.09473 2.33021e-07 1.48486e-10)
(1.09473 1.9662e-07 -4.62436e-11)
(1.09474 9.46826e-08 -3.72884e-10)
(1.09474 -3.55936e-08 -6.48326e-10)
(1.09474 -1.5572e-07 -6.11529e-10)
(1.09474 -2.27128e-07 -2.02173e-10)
(1.09474 -2.10621e-07 3.74676e-10)
(1.10076 -7.43874e-08 2.87854e-10)
(1.10076 6.36556e-08 2.55075e-10)
(1.10076 1.84373e-07 2.58901e-10)
(1.10076 2.18263e-07 3.42866e-10)
(1.10076 1.64258e-07 3.2672e-10)
(1.10077 5.7396e-08 3.50347e-11)
(1.10077 -6.3067e-08 -3.5697e-10)
(1.10077 -1.62757e-07 -5.46606e-10)
(1.10077 -2.10768e-07 -3.91169e-10)
(1.10077 -1.78591e-07 -3.13385e-12)
(1.10618 -3.97398e-08 -1.36918e-10)
(1.10618 8.94433e-08 -4.25257e-11)
(1.10618 1.91261e-07 2.03235e-10)
(1.10618 2.02634e-07 5.46984e-10)
(1.10618 1.31651e-07 7.05452e-10)
(1.10618 2.06041e-08 4.42401e-10)
(1.10619 -8.94314e-08 -7.25081e-11)
(1.10619 -1.68443e-07 -4.9224e-10)
(1.10619 -1.93331e-07 -5.90442e-10)
(1.10619 -1.46365e-07 -3.86383e-10)
(1.111 -6.63473e-09 -5.52887e-10)
(1.111 1.14247e-07 -3.29376e-10)
(1.111 1.98071e-07 1.56227e-10)
(1.111 1.87814e-07 7.5497e-10)
(1.111 1.00396e-07 1.08208e-09)
(1.111 -1.4791e-08 8.42333e-10)
(1.11101 -1.14841e-07 2.01844e-10)
(1.11101 -1.73944e-07 -4.46728e-10)
(1.11101 -1.76584e-07 -7.93993e-10)
(1.111 -1.15545e-07 -7.66998e-10)
(1.11524 2.40805e-08 -9.54652e-10)
(1.11523 1.38257e-07 -6.04194e-10)
(1.11523 2.05991e-07 1.1474e-10)
(1.11523 1.75582e-07 9.60437e-10)
(1.11523 7.21986e-08 1.44934e-09)
(1.11524 -4.78251e-08 1.22948e-09)
(1.11524 -1.39459e-07 4.64724e-10)
(1.11524 -1.80501e-07 -4.06903e-10)
(1.11524 -1.6241e-07 -9.95282e-10)
(1.11524 -8.78215e-08 -1.13753e-09)
(1.11889 5.14646e-08 -1.3387e-09)