/*--------------------------------*- C++ -*----------------------------------*\
| =========                 |                                                 |
| \\      /  F ield         | OpenFOAM: The Open Source CFD Toolbox           |
|  \\    /   O peration     | Version:  2.3.0                                 |
|   \\  /    A nd           | Web:      www.OpenFOAM.org                      |
|    \\/     M anipulation  |                                                 |
\*---------------------------------------------------------------------------*/
FoamFile
{
    version     2.0;
    format      ascii;
    class       volScalarField;
    location    "400";
    object      epsilon;
}
// * * * * * * * * * * * * * * * * * * * * * * * * * * * * * * * * * * * * * //

dimensions      [0 2 -3 0 0 0 0];

internalField   nonuniform List<scalar> 
3000
(
0.00900887
0.00900917
0.00901011
0.00901133
0.00901238
0.00901286
0.00901261
0.00901171
0.0090105
0.00900945
0.00348523
0.00348533
0.00348565
0.00348611
0.00348654
0.00348679
0.00348673
0.00348639
0.0034859
0.00348547
0.00191519
0.00191526
0.00191547
0.00191576
0.00191602
0.00191614
0.00191608
0.00191586
0.00191557
0.00191531
0.00124442
0.00124449
0.00124465
0.00124486
0.00124503
0.00124509
0.00124502
0.00124485
0.00124464
0.00124447
0.00087956
0.000879629
0.000879762
0.000879913
0.000880023
0.000880049
0.000879979
0.000879841
0.000879686
0.000879575
0.000650655
0.000650718
0.000650825
0.000650935
0.000651007
0.00065101
0.000650944
0.000650833
0.000650719
0.000650646
0.000493457
0.000493514
0.000493598
0.000493679
0.000493724
0.000493716
0.000493655
0.000493567
0.000493483
0.000493436
0.000379044
0.000379092
0.000379158
0.000379217
0.000379244
0.000379229
0.000379176
0.000379106
0.000379046
0.000379017
0.000292832
0.000292872
0.000292923
0.000292965
0.00029298
0.000292963
0.000292918
0.000292864
0.00029282
0.000292805
0.000226923
0.000226955
0.000226994
0.000227023
0.00022703
0.000227012
0.000226976
0.000226935
0.000226905
0.000226897
0.000176809
0.000176834
0.000176862
0.000176881
0.000176883
0.000176866
0.000176838
0.000176808
0.000176788
0.000176786
0.000139733
0.000139753
0.000139772
0.000139782
0.00013978
0.000139765
0.000139744
0.000139724
0.000139713
0.000139715
0.00011379
0.000113804
0.000113815
0.000113819
0.000113814
0.000113801
0.000113785
0.000113773
0.000113769
0.000113774
9.74806e-05
9.7491e-05
9.74974e-05
9.74965e-05
9.74885e-05
9.74764e-05
9.74647e-05
9.7458e-05
9.74589e-05
9.7467e-05
8.96532e-05
8.96618e-05
8.96654e-05
8.96618e-05
8.96522e-05
8.96404e-05
8.96308e-05
8.96271e-05
8.96307e-05
8.96404e-05
8.96536e-05
8.96624e-05
8.96659e-05
8.96622e-05
8.96524e-05
8.96402e-05
8.96305e-05
8.96268e-05
8.96306e-05
8.96405e-05
9.74817e-05
9.74926e-05
9.74989e-05
9.74976e-05
9.74888e-05
9.74759e-05
9.74638e-05
9.74572e-05
9.74585e-05
9.74674e-05
0.000113791
0.000113806
0.000113818
0.000113821
0.000113815
0.0001138
0.000113784
0.000113771
0.000113768
0.000113775
0.000139735
0.000139755
0.000139775
0.000139785
0.000139781
0.000139765
0.000139742
0.000139722
0.000139711
0.000139715
0.00017681
0.000176837
0.000176865
0.000176884
0.000176884
0.000176866
0.000176836
0.000176805
0.000176786
0.000176786
0.000226923
0.000226957
0.000226997
0.000227026
0.000227032
0.000227012
0.000226973
0.000226931
0.000226901
0.000226895
0.00029283
0.000292873
0.000292927
0.000292969
0.000292983
0.000292963
0.000292915
0.000292859
0.000292815
0.0002928
0.000379041
0.000379092
0.000379162
0.000379221
0.000379248
0.00037923
0.000379173
0.0003791
0.000379038
0.000379011
0.000493452
0.000493513
0.000493602
0.000493685
0.00049373
0.000493718
0.000493653
0.000493559
0.000493473
0.000493427
0.000650647
0.000650716
0.000650829
0.000650943
0.000651015
0.000651015
0.000650942
0.000650824
0.000650706
0.000650633
0.000879548
0.000879624
0.000879766
0.000879923
0.000880034
0.000880056
0.000879979
0.000879832
0.000879671
0.000879557
0.0012444
0.00124448
0.00124466
0.00124487
0.00124504
0.0012451
0.00124503
0.00124484
0.00124462
0.00124445
0.00191516
0.00191524
0.00191547
0.00191578
0.00191604
0.00191616
0.00191609
0.00191586
0.00191555
0.00191528
0.00348519
0.0034853
0.00348565
0.00348613
0.00348658
0.00348683
0.00348676
0.00348639
0.00348588
0.00348543
0.00900876
0.0090091
0.00901011
0.00901139
0.00901247
0.00901295
0.00901266
0.00901169
0.00901043
0.00900934
0.00900887
0.00900914
0.00901007
0.00901129
0.00901235
0.00901286
0.00901263
0.00901175
0.00901054
0.00900947
0.00348523
0.00348532
0.00348564
0.00348609
0.00348653
0.00348679
0.00348674
0.00348641
0.00348592
0.00348548
0.00191518
0.00191525
0.00191546
0.00191575
0.00191601
0.00191614
0.00191609
0.00191587
0.00191558
0.00191532
0.00124441
0.00124448
0.00124465
0.00124485
0.00124502
0.00124509
0.00124503
0.00124486
0.00124465
0.00124448
0.000879557
0.000879624
0.000879756
0.000879908
0.000880021
0.00088005
0.000879983
0.000879846
0.00087969
0.000879576
0.000650652
0.000650714
0.00065082
0.000650932
0.000651006
0.000651012
0.000650947
0.000650836
0.000650721
0.000650646
0.000493455
0.00049351
0.000493595
0.000493677
0.000493724
0.000493717
0.000493658
0.000493569
0.000493485
0.000493436
0.000379042
0.000379089
0.000379156
0.000379215
0.000379244
0.00037923
0.000379178
0.000379108
0.000379046
0.000379017
0.00029283
0.00029287
0.000292922
0.000292964
0.000292981
0.000292964
0.00029292
0.000292865
0.000292821
0.000292804
0.000226921
0.000226954
0.000226993
0.000227022
0.00022703
0.000227013
0.000226977
0.000226936
0.000226905
0.000226897
0.000176808
0.000176833
0.000176862
0.000176881
0.000176883
0.000176867
0.000176839
0.000176808
0.000176788
0.000176786
0.000139733
0.000139752
0.000139771
0.000139782
0.000139781
0.000139766
0.000139745
0.000139724
0.000139713
0.000139714
0.000113789
0.000113803
0.000113815
0.00011382
0.000113815
0.000113802
0.000113786
0.000113773
0.000113769
0.000113774
9.74804e-05
9.74909e-05
9.74976e-05
9.74969e-05
9.74891e-05
9.74769e-05
9.74651e-05
9.74582e-05
9.74588e-05
9.74667e-05
8.96531e-05
8.96619e-05
8.96657e-05
8.96623e-05
8.96528e-05
8.96409e-05
8.96311e-05
8.96271e-05
8.96305e-05
8.96401e-05
8.96534e-05
8.96624e-05
8.96662e-05
8.96627e-05
8.9653e-05
8.96408e-05
8.96308e-05
8.96268e-05
8.96304e-05
8.96402e-05
9.74814e-05
9.74925e-05
9.74991e-05
9.7498e-05
9.74894e-05
9.74765e-05
9.74642e-05
9.74573e-05
9.74584e-05
9.74671e-05
0.000113791
0.000113806
0.000113818
0.000113822
0.000113815
0.000113801
0.000113784
0.000113772
0.000113768
0.000113774
0.000139734
0.000139755
0.000139774
0.000139785
0.000139781
0.000139765
0.000139743
0.000139722
0.000139711
0.000139714
0.000176809
0.000176836
0.000176865
0.000176884
0.000176884
0.000176867
0.000176836
0.000176806
0.000176786
0.000176785
0.000226921
0.000226956
0.000226996
0.000227026
0.000227032
0.000227013
0.000226975
0.000226932
0.000226901
0.000226894
0.000292829
0.000292871
0.000292925
0.000292968
0.000292983
0.000292964
0.000292917
0.00029286
0.000292815
0.0002928
0.000379038
0.00037909
0.000379159
0.00037922
0.000379248
0.000379231
0.000379176
0.000379102
0.000379039
0.00037901
0.00049345
0.00049351
0.000493599
0.000493683
0.00049373
0.000493719
0.000493656
0.000493562
0.000493475
0.000493427
0.000650644
0.000650712
0.000650824
0.00065094
0.000651014
0.000651017
0.000650946
0.000650828
0.000650709
0.000650633
0.000879545
0.000879619
0.00087976
0.000879918
0.000880033
0.000880058
0.000879983
0.000879837
0.000879675
0.000879558
0.0012444
0.00124447
0.00124465
0.00124487
0.00124504
0.00124511
0.00124503
0.00124485
0.00124463
0.00124445
0.00191516
0.00191523
0.00191546
0.00191577
0.00191604
0.00191617
0.0019161
0.00191587
0.00191556
0.00191529
0.00348518
0.00348529
0.00348564
0.00348612
0.00348657
0.00348683
0.00348677
0.00348641
0.00348589
0.00348544
0.00900876
0.00900907
0.00901007
0.00901135
0.00901245
0.00901295
0.00901268
0.00901173
0.00901047
0.00900936
0.00900887
0.00900913
0.00901006
0.00901128
0.00901235
0.00901287
0.00901264
0.00901176
0.00901055
0.00900948
0.00348522
0.00348531
0.00348563
0.00348609
0.00348653
0.00348679
0.00348675
0.00348641
0.00348592
0.00348548
0.00191518
0.00191525
0.00191546
0.00191575
0.00191601
0.00191614
0.00191609
0.00191587
0.00191558
0.00191532
0.00124441
0.00124448
0.00124464
0.00124485
0.00124502
0.00124509
0.00124503
0.00124486
0.00124465
0.00124448
0.000879556
0.000879622
0.000879755
0.000879907
0.000880021
0.000880051
0.000879985
0.000879847
0.000879691
0.000879576
0.000650651
0.000650713
0.000650819
0.000650931
0.000651006
0.000651013
0.000650949
0.000650838
0.000650722
0.000650646
0.000493454
0.000493509
0.000493594
0.000493676
0.000493724
0.000493718
0.000493659
0.00049357
0.000493485
0.000493436
0.000379041
0.000379088
0.000379155
0.000379215
0.000379244
0.000379231
0.000379179
0.000379109
0.000379047
0.000379016
0.00029283
0.000292869
0.000292921
0.000292964
0.000292981
0.000292964
0.00029292
0.000292866
0.000292821
0.000292804
0.000226921
0.000226953
0.000226993
0.000227022
0.000227031
0.000227014
0.000226977
0.000226936
0.000226905
0.000226896
0.000176807
0.000176833
0.000176861
0.000176881
0.000176883
0.000176867
0.000176839
0.000176809
0.000176788
0.000176786
0.000139733
0.000139752
0.000139771
0.000139783
0.000139781
0.000139766
0.000139745
0.000139724
0.000139712
0.000139714
0.000113789
0.000113803
0.000113815
0.00011382
0.000113815
0.000113802
0.000113786
0.000113773
0.000113769
0.000113774
9.74803e-05
9.74909e-05
9.74976e-05
9.74971e-05
9.74892e-05
9.7477e-05
9.74652e-05
9.74581e-05
9.74587e-05
9.74666e-05
8.9653e-05
8.96619e-05
8.96658e-05
8.96625e-05
8.9653e-05
8.9641e-05
8.96311e-05
8.96271e-05
8.96304e-05
8.964e-05
8.96534e-05
8.96625e-05
8.96664e-05
8.96629e-05
8.96531e-05
8.96409e-05
8.96308e-05
8.96268e-05
8.96303e-05
8.96401e-05
9.74814e-05
9.74925e-05
9.74992e-05
9.74982e-05
9.74896e-05
9.74766e-05
9.74643e-05
9.74572e-05
9.74582e-05
9.74669e-05
0.000113791
0.000113806
0.000113818
0.000113822
0.000113815
0.000113801
0.000113784
0.000113772
0.000113768
0.000113774
0.000139734
0.000139754
0.000139774
0.000139785
0.000139782
0.000139766
0.000139743
0.000139722
0.000139711
0.000139714
0.000176808
0.000176835
0.000176864
0.000176884
0.000176885
0.000176867
0.000176837
0.000176806
0.000176786
0.000176785
0.000226921
0.000226955
0.000226996
0.000227026
0.000227033
0.000227013
0.000226975
0.000226932
0.000226901
0.000226894
0.000292828
0.000292871
0.000292925
0.000292968
0.000292984
0.000292964
0.000292918
0.000292861
0.000292815
0.000292799
0.000379038
0.000379089
0.000379159
0.00037922
0.000379248
0.000379232
0.000379176
0.000379103
0.000379039
0.00037901
0.000493449
0.000493509
0.000493598
0.000493683
0.00049373
0.00049372
0.000493657
0.000493563
0.000493475
0.000493426
0.000650643
0.00065071
0.000650823
0.000650939
0.000651014
0.000651018
0.000650947
0.000650829
0.000650709
0.000650633
0.000879544
0.000879617
0.000879758
0.000879917
0.000880033
0.000880059
0.000879985
0.000879839
0.000879676
0.000879558
0.00124439
0.00124447
0.00124465
0.00124486
0.00124504
0.00124511
0.00124503
0.00124485
0.00124463
0.00124445
0.00191516
0.00191523
0.00191546
0.00191576
0.00191604
0.00191617
0.0019161
0.00191587
0.00191556
0.00191529
0.00348518
0.00348529
0.00348563
0.00348611
0.00348657
0.00348683
0.00348677
0.00348641
0.0034859
0.00348544
0.00900875
0.00900906
0.00901006
0.00901134
0.00901244
0.00901296
0.00901269
0.00901175
0.00901048
0.00900936
0.00900886
0.00900913
0.00901005
0.00901128
0.00901235
0.00901287
0.00901265
0.00901176
0.00901056
0.00900948
0.00348522
0.00348531
0.00348563
0.00348609
0.00348653
0.00348679
0.00348675
0.00348642
0.00348593
0.00348548
0.00191518
0.00191525
0.00191546
0.00191575
0.00191601
0.00191614
0.00191609
0.00191588
0.00191558
0.00191532
0.00124441
0.00124448
0.00124464
0.00124485
0.00124502
0.00124509
0.00124503
0.00124486
0.00124465
0.00124448
0.000879556
0.000879622
0.000879754
0.000879907
0.000880021
0.000880052
0.000879985
0.000879848
0.000879691
0.000879576
0.000650651
0.000650712
0.000650819
0.000650931
0.000651006
0.000651013
0.000650949
0.000650838
0.000650722
0.000650646
0.000493454
0.000493509
0.000493594
0.000493676
0.000493724
0.000493718
0.000493659
0.00049357
0.000493485
0.000493436
0.000379041
0.000379088
0.000379155
0.000379215
0.000379245
0.000379231
0.000379179
0.000379109
0.000379047
0.000379016
0.000292829
0.000292869
0.000292921
0.000292964
0.000292981
0.000292964
0.00029292
0.000292866
0.000292821
0.000292803
0.000226921
0.000226953
0.000226993
0.000227022
0.000227031
0.000227014
0.000226978
0.000226936
0.000226905
0.000226896
0.000176807
0.000176833
0.000176861
0.000176881
0.000176883
0.000176867
0.000176839
0.000176809
0.000176788
0.000176785
0.000139732
0.000139752
0.000139771
0.000139783
0.000139781
0.000139766
0.000139745
0.000139724
0.000139712
0.000139714
0.000113789
0.000113803
0.000113815
0.00011382
0.000113815
0.000113802
0.000113786
0.000113773
0.000113768
0.000113774
9.74803e-05
9.74909e-05
9.74976e-05
9.74971e-05
9.74892e-05
9.7477e-05
9.74651e-05
9.74581e-05
9.74586e-05
9.74665e-05
8.9653e-05
8.96619e-05
8.96658e-05
8.96625e-05
8.9653e-05
8.9641e-05
8.96311e-05
8.9627e-05
8.96304e-05
8.96399e-05
8.96533e-05
8.96624e-05
8.96664e-05
8.96629e-05
8.96531e-05
8.96409e-05
8.96308e-05
8.96267e-05
8.96302e-05
8.96401e-05
9.74813e-05
9.74925e-05
9.74992e-05
9.74982e-05
9.74896e-05
9.74766e-05
9.74642e-05
9.74572e-05
9.74582e-05
9.74669e-05
0.000113791
0.000113806
0.000113818
0.000113822
0.000113815
0.000113801
0.000113784
0.000113772
0.000113768
0.000113774
0.000139734
0.000139754
0.000139774
0.000139785
0.000139782
0.000139766
0.000139743
0.000139722
0.000139711
0.000139714
0.000176808
0.000176835
0.000176864
0.000176884
0.000176885
0.000176867
0.000176837
0.000176806
0.000176786
0.000176784
0.000226921
0.000226955
0.000226996
0.000227026
0.000227033
0.000227013
0.000226975
0.000226932
0.000226901
0.000226894
0.000292828
0.000292871
0.000292925
0.000292968
0.000292984
0.000292965
0.000292918
0.000292861
0.000292815
0.000292799
0.000379037
0.000379089
0.000379159
0.00037922
0.000379249
0.000379232
0.000379177
0.000379103
0.000379039
0.000379009
0.000493448
0.000493508
0.000493598
0.000493683
0.00049373
0.000493721
0.000493657
0.000493563
0.000493475
0.000493426
0.000650642
0.00065071
0.000650823
0.000650939
0.000651014
0.000651018
0.000650948
0.00065083
0.000650709
0.000650632
0.000879543
0.000879617
0.000879758
0.000879917
0.000880033
0.00088006
0.000879986
0.000879839
0.000879676
0.000879558
0.00124439
0.00124447
0.00124465
0.00124486
0.00124504
0.00124511
0.00124504
0.00124485
0.00124463
0.00124445
0.00191516
0.00191523
0.00191546
0.00191576
0.00191604
0.00191617
0.0019161
0.00191587
0.00191556
0.00191529
0.00348518
0.00348529
0.00348563
0.00348611
0.00348657
0.00348683
0.00348678
0.00348642
0.0034859
0.00348544
0.00900875
0.00900906
0.00901005
0.00901134
0.00901244
0.00901296
0.0090127
0.00901175
0.00901048
0.00900936
0.00900886
0.00900912
0.00901005
0.00901128
0.00901235
0.00901287
0.00901265
0.00901176
0.00901056
0.00900948
0.00348522
0.00348531
0.00348563
0.00348609
0.00348653
0.00348679
0.00348675
0.00348642
0.00348593
0.00348548
0.00191518
0.00191525
0.00191546
0.00191575
0.00191601
0.00191614
0.00191609
0.00191588
0.00191558
0.00191532
0.00124441
0.00124448
0.00124464
0.00124485
0.00124502
0.00124509
0.00124503
0.00124486
0.00124465
0.00124448
0.000879555
0.000879622
0.000879754
0.000879907
0.000880021
0.000880052
0.000879985
0.000879848
0.000879691
0.000879576
0.00065065
0.000650712
0.000650819
0.000650931
0.000651006
0.000651013
0.000650949
0.000650838
0.000650722
0.000650646
0.000493454
0.000493509
0.000493594
0.000493676
0.000493724
0.000493718
0.000493659
0.00049357
0.000493485
0.000493436
0.000379041
0.000379088
0.000379155
0.000379215
0.000379245
0.000379231
0.000379179
0.000379109
0.000379046
0.000379016
0.000292829
0.000292869
0.000292921
0.000292964
0.000292981
0.000292964
0.00029292
0.000292866
0.000292821
0.000292803
0.000226921
0.000226953
0.000226993
0.000227022
0.000227031
0.000227014
0.000226978
0.000226936
0.000226905
0.000226896
0.000176807
0.000176833
0.000176861
0.000176881
0.000176883
0.000176867
0.000176839
0.000176809
0.000176788
0.000176785
0.000139732
0.000139752
0.000139771
0.000139783
0.000139781
0.000139766
0.000139745
0.000139724
0.000139712
0.000139714
0.000113789
0.000113803
0.000113815
0.00011382
0.000113815
0.000113802
0.000113786
0.000113773
0.000113768
0.000113774
9.74802e-05
9.74909e-05
9.74976e-05
9.74971e-05
9.74892e-05
9.7477e-05
9.74651e-05
9.7458e-05
9.74586e-05
9.74665e-05
8.96529e-05
8.96619e-05
8.96658e-05
8.96625e-05
8.9653e-05
8.9641e-05
8.9631e-05
8.96269e-05
8.96303e-05
8.96399e-05
8.96533e-05
8.96624e-05
8.96663e-05
8.96628e-05
8.96531e-05
8.96408e-05
8.96307e-05
8.96266e-05
8.96302e-05
8.964e-05
9.74813e-05
9.74924e-05
9.74992e-05
9.74982e-05
9.74896e-05
9.74766e-05
9.74642e-05
9.74571e-05
9.74581e-05
9.74668e-05
0.000113791
0.000113806
0.000113818
0.000113822
0.000113815
0.000113801
0.000113784
0.000113772
0.000113768
0.000113774
0.000139734
0.000139754
0.000139774
0.000139785
0.000139782
0.000139766
0.000139743
0.000139722
0.000139711
0.000139714
0.000176808
0.000176835
0.000176864
0.000176884
0.000176885
0.000176867
0.000176837
0.000176806
0.000176786
0.000176784
0.000226921
0.000226955
0.000226996
0.000227026
0.000227033
0.000227013
0.000226975
0.000226932
0.000226901
0.000226894
0.000292828
0.00029287
0.000292925
0.000292968
0.000292984
0.000292965
0.000292918
0.000292861
0.000292815
0.000292799
0.000379037
0.000379088
0.000379159
0.00037922
0.000379249
0.000379232
0.000379177
0.000379103
0.000379039
0.000379009
0.000493448
0.000493508
0.000493598
0.000493683
0.00049373
0.000493721
0.000493657
0.000493563
0.000493475
0.000493426
0.000650642
0.00065071
0.000650823
0.000650939
0.000651015
0.000651018
0.000650948
0.00065083
0.000650709
0.000650632
0.000879543
0.000879616
0.000879758
0.000879917
0.000880033
0.00088006
0.000879986
0.000879839
0.000879676
0.000879558
0.00124439
0.00124447
0.00124465
0.00124486
0.00124504
0.00124511
0.00124504
0.00124485
0.00124463
0.00124445
0.00191515
0.00191523
0.00191546
0.00191576
0.00191604
0.00191617
0.0019161
0.00191587
0.00191556
0.00191529
0.00348518
0.00348529
0.00348563
0.00348611
0.00348657
0.00348683
0.00348678
0.00348642
0.0034859
0.00348544
0.00900875
0.00900906
0.00901005
0.00901134
0.00901244
0.00901296
0.0090127
0.00901175
0.00901048
0.00900936
0.00900886
0.00900912
0.00901005
0.00901128
0.00901235
0.00901287
0.00901265
0.00901176
0.00901056
0.00900948
0.00348522
0.00348531
0.00348563
0.00348609
0.00348653
0.00348679
0.00348675
0.00348642
0.00348593
0.00348548
0.00191518
0.00191525
0.00191546
0.00191575
0.00191601
0.00191614
0.00191609
0.00191588
0.00191558
0.00191532
0.00124441
0.00124448
0.00124464
0.00124485
0.00124502
0.00124509
0.00124503
0.00124486
0.00124465
0.00124448
0.000879556
0.000879622
0.000879754
0.000879907
0.000880021
0.000880052
0.000879985
0.000879848
0.000879691
0.000879576
0.000650651
0.000650712
0.000650819
0.000650931
0.000651006
0.000651013
0.000650949
0.000650838
0.000650722
0.000650646
0.000493454
0.000493509
0.000493594
0.000493676
0.000493724
0.000493718
0.000493659
0.00049357
0.000493485
0.000493436
0.000379041
0.000379088
0.000379155
0.000379215
0.000379245
0.000379231
0.000379179
0.000379109
0.000379046
0.000379016
0.000292829
0.000292869
0.000292921
0.000292964
0.000292981
0.000292964
0.00029292
0.000292866
0.000292821
0.000292803
0.000226921
0.000226953
0.000226993
0.000227022
0.000227031
0.000227014
0.000226978
0.000226936
0.000226905
0.000226896
0.000176807
0.000176833
0.000176861
0.000176881
0.000176883
0.000176867
0.000176839
0.000176809
0.000176788
0.000176785
0.000139732
0.000139752
0.000139771
0.000139783
0.000139781
0.000139766
0.000139745
0.000139724
0.000139712
0.000139714
0.000113789
0.000113803
0.000113815
0.00011382
0.000113815
0.000113802
0.000113786
0.000113773
0.000113768
0.000113774
9.74802e-05
9.74909e-05
9.74976e-05
9.74971e-05
9.74892e-05
9.7477e-05
9.74651e-05
9.7458e-05
9.74586e-05
9.74665e-05
8.96529e-05
8.96619e-05
8.96658e-05
8.96625e-05
8.9653e-05
8.9641e-05
8.9631e-05
8.96269e-05
8.96303e-05
8.96399e-05
8.96533e-05
8.96624e-05
8.96663e-05
8.96628e-05
8.96531e-05
8.96408e-05
8.96307e-05
8.96266e-05
8.96302e-05
8.964e-05
9.74813e-05
9.74924e-05
9.74992e-05
9.74982e-05
9.74896e-05
9.74766e-05
9.74642e-05
9.74571e-05
9.74581e-05
9.74668e-05
0.000113791
0.000113806
0.000113818
0.000113822
0.000113815
0.000113801
0.000113784
0.000113772
0.000113768
0.000113774
0.000139734
0.000139754
0.000139774
0.000139785
0.000139782
0.000139766
0.000139743
0.000139722
0.000139711
0.000139714
0.000176808
0.000176835
0.000176864
0.000176884
0.000176885
0.000176867
0.000176837
0.000176806
0.000176786
0.000176784
0.000226921
0.000226955
0.000226996
0.000227026
0.000227033
0.000227013
0.000226975
0.000226932
0.000226901
0.000226894
0.000292828
0.00029287
0.000292925
0.000292968
0.000292984
0.000292965
0.000292918
0.000292861
0.000292815
0.000292799
0.000379037
0.000379088
0.000379159
0.00037922
0.000379249
0.000379232
0.000379177
0.000379103
0.000379039
0.000379009
0.000493448
0.000493508
0.000493598
0.000493683
0.00049373
0.000493721
0.000493657
0.000493563
0.000493475
0.000493426
0.000650642
0.00065071
0.000650822
0.000650939
0.000651014
0.000651018
0.000650948
0.00065083
0.000650709
0.000650632
0.000879543
0.000879616
0.000879758
0.000879917
0.000880033
0.00088006
0.000879986
0.000879839
0.000879676
0.000879558
0.00124439
0.00124447
0.00124465
0.00124486
0.00124504
0.00124511
0.00124504
0.00124485
0.00124463
0.00124445
0.00191515
0.00191523
0.00191546
0.00191576
0.00191604
0.00191617
0.0019161
0.00191587
0.00191556
0.00191529
0.00348518
0.00348529
0.00348563
0.00348611
0.00348657
0.00348683
0.00348678
0.00348642
0.0034859
0.00348544
0.00900875
0.00900906
0.00901005
0.00901134
0.00901244
0.00901296
0.0090127
0.00901175
0.00901048
0.00900936
0.00900886
0.00900913
0.00901005
0.00901128
0.00901235
0.00901287
0.00901265
0.00901176
0.00901056
0.00900948
0.00348522
0.00348531
0.00348563
0.00348609
0.00348653
0.00348679
0.00348675
0.00348642
0.00348593
0.00348548
0.00191518
0.00191525
0.00191546
0.00191575
0.00191601
0.00191614
0.00191609
0.00191588
0.00191558
0.00191532
0.00124441
0.00124448
0.00124464
0.00124485
0.00124502
0.00124509
0.00124503
0.00124486
0.00124465
0.00124448
0.000879556
0.000879622
0.000879754
0.000879907
0.000880021
0.000880051
0.000879985
0.000879848
0.000879692
0.000879576
0.000650651
0.000650712
0.000650819
0.000650931
0.000651006
0.000651013
0.000650949
0.000650838
0.000650722
0.000650646
0.000493454
0.000493509
0.000493594
0.000493676
0.000493724
0.000493718
0.000493659
0.00049357
0.000493485
0.000493436
0.000379041
0.000379088
0.000379155
0.000379215
0.000379244
0.000379231
0.000379179
0.000379109
0.000379047
0.000379016
0.000292829
0.000292869
0.000292921
0.000292964
0.000292981
0.000292964
0.00029292
0.000292866
0.000292821
0.000292803
0.000226921
0.000226953
0.000226993
0.000227022
0.000227031
0.000227014
0.000226978
0.000226936
0.000226905
0.000226896
0.000176807
0.000176833
0.000176861
0.000176881
0.000176883
0.000176867
0.000176839
0.000176809
0.000176788
0.000176785
0.000139732
0.000139752
0.000139771
0.000139783
0.000139781
0.000139766
0.000139745
0.000139724
0.000139712
0.000139714
0.000113789
0.000113803
0.000113815
0.00011382
0.000113815
0.000113802
0.000113786
0.000113773
0.000113768
0.000113774
9.74803e-05
9.74909e-05
9.74976e-05
9.74971e-05
9.74892e-05
9.7477e-05
9.74651e-05
9.74581e-05
9.74586e-05
9.74665e-05
8.9653e-05
8.96619e-05
8.96658e-05
8.96625e-05
8.9653e-05
8.9641e-05
8.96311e-05
8.9627e-05
8.96304e-05
8.96399e-05
8.96533e-05
8.96624e-05
8.96664e-05
8.96629e-05
8.96531e-05
8.96409e-05
8.96308e-05
8.96267e-05
8.96302e-05
8.96401e-05
9.74813e-05
9.74924e-05
9.74992e-05
9.74982e-05
9.74896e-05
9.74766e-05
9.74642e-05
9.74572e-05
9.74582e-05
9.74669e-05
0.000113791
0.000113806
0.000113818
0.000113822
0.000113815
0.000113801
0.000113784
0.000113772
0.000113768
0.000113774
0.000139734
0.000139754
0.000139774
0.000139785
0.000139782
0.000139766
0.000139743
0.000139722
0.000139711
0.000139714
0.000176808
0.000176835
0.000176864
0.000176884
0.000176885
0.000176867
0.000176837
0.000176806
0.000176786
0.000176784
0.000226921
0.000226955
0.000226996
0.000227026
0.000227033
0.000227013
0.000226975
0.000226932
0.000226901
0.000226894
0.000292828
0.000292871
0.000292925
0.000292968
0.000292984
0.000292965
0.000292918
0.000292861
0.000292815
0.000292799
0.000379037
0.000379089
0.000379159
0.00037922
0.000379248
0.000379232
0.000379177
0.000379103
0.000379039
0.000379009
0.000493449
0.000493508
0.000493598
0.000493683
0.00049373
0.000493721
0.000493657
0.000493563
0.000493475
0.000493426
0.000650642
0.00065071
0.000650823
0.000650939
0.000651014
0.000651018
0.000650948
0.00065083
0.000650709
0.000650632
0.000879543
0.000879617
0.000879758
0.000879917
0.000880033
0.00088006
0.000879986
0.000879839
0.000879676
0.000879558
0.00124439
0.00124447
0.00124465
0.00124486
0.00124504
0.00124511
0.00124504
0.00124485
0.00124463
0.00124445
0.00191516
0.00191523
0.00191546
0.00191576
0.00191604
0.00191617
0.0019161
0.00191587
0.00191556
0.00191529
0.00348518
0.00348529
0.00348563
0.00348611
0.00348657
0.00348683
0.00348678
0.00348642
0.0034859
0.00348544
0.00900875
0.00900906
0.00901005
0.00901134
0.00901244
0.00901296
0.0090127
0.00901175
0.00901048
0.00900936
0.00900887
0.00900913
0.00901006
0.00901128
0.00901235
0.00901287
0.00901264
0.00901176
0.00901055
0.00900948
0.00348523
0.00348531
0.00348563
0.00348609
0.00348653
0.00348679
0.00348675
0.00348641
0.00348593
0.00348548
0.00191518
0.00191525
0.00191546
0.00191575
0.00191601
0.00191614
0.00191609
0.00191587
0.00191558
0.00191532
0.00124441
0.00124448
0.00124464
0.00124485
0.00124502
0.00124509
0.00124503
0.00124486
0.00124465
0.00124448
0.000879556
0.000879622
0.000879755
0.000879907
0.000880021
0.000880051
0.000879985
0.000879847
0.000879691
0.000879576
0.000650651
0.000650713
0.000650819
0.000650931
0.000651006
0.000651013
0.000650949
0.000650838
0.000650722
0.000650646
0.000493454
0.000493509
0.000493594
0.000493676
0.000493724
0.000493718
0.000493659
0.00049357
0.000493485
0.000493436
0.000379041
0.000379088
0.000379155
0.000379215
0.000379244
0.000379231
0.000379179
0.000379109
0.000379047
0.000379016
0.00029283
0.000292869
0.000292921
0.000292964
0.000292981
0.000292964
0.00029292
0.000292866
0.000292821
0.000292804
0.000226921
0.000226953
0.000226993
0.000227022
0.000227031
0.000227014
0.000226978
0.000226936
0.000226905
0.000226896
0.000176807
0.000176833
0.000176861
0.000176881
0.000176883
0.000176867
0.000176839
0.000176809
0.000176788
0.000176786
0.000139733
0.000139752
0.000139771
0.000139783
0.000139781
0.000139766
0.000139745
0.000139724
0.000139712
0.000139714
0.000113789
0.000113803
0.000113815
0.00011382
0.000113815
0.000113802
0.000113786
0.000113773
0.000113769
0.000113774
9.74803e-05
9.74909e-05
9.74976e-05
9.74971e-05
9.74892e-05
9.7477e-05
9.74652e-05
9.74581e-05
9.74587e-05
9.74666e-05
8.9653e-05
8.96619e-05
8.96658e-05
8.96625e-05
8.9653e-05
8.9641e-05
8.96311e-05
8.96271e-05
8.96304e-05
8.964e-05
8.96534e-05
8.96625e-05
8.96664e-05
8.96629e-05
8.96531e-05
8.96409e-05
8.96308e-05
8.96268e-05
8.96303e-05
8.96401e-05
9.74813e-05
9.74925e-05
9.74992e-05
9.74982e-05
9.74896e-05
9.74766e-05
9.74643e-05
9.74572e-05
9.74582e-05
9.74669e-05
0.000113791
0.000113806
0.000113818
0.000113822
0.000113815
0.000113801
0.000113784
0.000113772
0.000113768
0.000113774
0.000139734
0.000139754
0.000139774
0.000139785
0.000139782
0.000139766
0.000139743
0.000139722
0.000139711
0.000139714
0.000176808
0.000176835
0.000176864
0.000176884
0.000176885
0.000176867
0.000176837
0.000176806
0.000176786
0.000176785
0.000226921
0.000226955
0.000226996
0.000227026
0.000227033
0.000227013
0.000226975
0.000226932
0.000226901
0.000226894
0.000292828
0.000292871
0.000292925
0.000292968
0.000292984
0.000292964
0.000292918
0.000292861
0.000292815
0.000292799
0.000379038
0.000379089
0.000379159
0.00037922
0.000379248
0.000379232
0.000379176
0.000379103
0.000379039
0.00037901
0.000493449
0.000493508
0.000493598
0.000493683
0.00049373
0.00049372
0.000493657
0.000493563
0.000493475
0.000493426
0.000650643
0.00065071
0.000650823
0.000650939
0.000651014
0.000651018
0.000650947
0.000650829
0.000650709
0.000650633
0.000879544
0.000879617
0.000879758
0.000879917
0.000880033
0.000880059
0.000879985
0.000879839
0.000879676
0.000879558
0.00124439
0.00124447
0.00124465
0.00124486
0.00124504
0.00124511
0.00124503
0.00124485
0.00124463
0.00124445
0.00191516
0.00191523
0.00191546
0.00191576
0.00191604
0.00191617
0.0019161
0.00191587
0.00191556
0.00191529
0.00348518
0.00348529
0.00348563
0.00348611
0.00348657
0.00348683
0.00348677
0.00348641
0.0034859
0.00348544
0.00900875
0.00900906
0.00901006
0.00901134
0.00901244
0.00901296
0.00901269
0.00901175
0.00901048
0.00900936
0.00900887
0.00900914
0.00901007
0.00901129
0.00901235
0.00901286
0.00901263
0.00901175
0.00901054
0.00900947
0.00348523
0.00348532
0.00348564
0.00348609
0.00348653
0.00348679
0.00348674
0.00348641
0.00348592
0.00348548
0.00191518
0.00191525
0.00191546
0.00191575
0.00191601
0.00191614
0.00191609
0.00191587
0.00191558
0.00191532
0.00124441
0.00124448
0.00124465
0.00124485
0.00124502
0.00124509
0.00124503
0.00124486
0.00124465
0.00124448
0.000879557
0.000879624
0.000879756
0.000879908
0.000880021
0.00088005
0.000879983
0.000879846
0.00087969
0.000879576
0.000650652
0.000650714
0.00065082
0.000650932
0.000651006
0.000651012
0.000650947
0.000650836
0.000650722
0.000650646
0.000493455
0.00049351
0.000493595
0.000493677
0.000493724
0.000493717
0.000493658
0.000493569
0.000493485
0.000493436
0.000379042
0.000379089
0.000379156
0.000379215
0.000379244
0.00037923
0.000379178
0.000379108
0.000379047
0.000379017
0.00029283
0.00029287
0.000292922
0.000292964
0.000292981
0.000292964
0.00029292
0.000292865
0.000292821
0.000292804
0.000226921
0.000226954
0.000226993
0.000227022
0.00022703
0.000227013
0.000226977
0.000226936