/*--------------------------------*- C++ -*----------------------------------*\
| =========                 |                                                 |
| \\      /  F ield         | OpenFOAM: The Open Source CFD Toolbox           |
|  \\    /   O peration     | Version:  2.3.0                                 |
|   \\  /    A nd           | Web:      www.OpenFOAM.org                      |
|    \\/     M anipulation  |                                                 |
\*---------------------------------------------------------------------------*/
FoamFile
{
    version     2.0;
    format      ascii;
    class       volScalarField;
    location    "400";
    object      k;
}
// * * * * * * * * * * * * * * * * * * * * * * * * * * * * * * * * * * * * * //

dimensions      [0 2 -2 0 0 0 0];

internalField   nonuniform List<scalar> 
3000
(
0.00824963
0.00824975
0.0082503
0.00825103
0.0082517
0.00825204
0.00825194
0.00825143
0.0082507
0.00825003
0.00781065
0.00780982
0.00781003
0.00781121
0.007813
0.00781475
0.00781575
0.0078156
0.00781435
0.00781252
0.00702251
0.00702157
0.00702197
0.00702358
0.00702583
0.00702787
0.00702892
0.00702857
0.00702697
0.00702474
0.00636548
0.00636465
0.00636533
0.00636727
0.00636977
0.00637189
0.00637283
0.00637222
0.00637031
0.00636782
0.00577653
0.00577591
0.00577685
0.00577902
0.00578161
0.00578367
0.0057844
0.00578353
0.00578139
0.00577878
0.00522921
0.00522884
0.00523002
0.00523232
0.00523488
0.00523677
0.00523726
0.00523615
0.00523387
0.00523127
0.00471353
0.00471342
0.00471478
0.00471711
0.00471956
0.00472121
0.00472143
0.00472014
0.00471781
0.00471532
0.00422761
0.00422774
0.00422923
0.00423152
0.00423377
0.00423514
0.00423512
0.00423369
0.00423139
0.0042291
0.00377474
0.00377509
0.00377664
0.00377881
0.00378081
0.00378188
0.00378163
0.00378012
0.00377793
0.00377589
0.00336203
0.00336257
0.00336413
0.00336613
0.00336783
0.0033686
0.00336814
0.00336662
0.00336459
0.00336284
0.00299936
0.00300006
0.00300159
0.00300338
0.00300476
0.00300522
0.00300459
0.00300308
0.00300127
0.00299984
0.00269758
0.00269842
0.00269989
0.00270144
0.0027025
0.00270267
0.00270188
0.00270042
0.00269884
0.00269774
0.00246601
0.00246697
0.00246837
0.0024697
0.00247046
0.00247037
0.00246945
0.00246804
0.00246668
0.00246588
0.00231037
0.00231142
0.00231277
0.00231393
0.00231446
0.00231415
0.00231314
0.00231178
0.00231059
0.00231002
0.00223255
0.00223366
0.00223499
0.00223606
0.00223646
0.00223604
0.00223496
0.00223362
0.00223252
0.00223207
0.00223254
0.00223366
0.00223501
0.00223608
0.00223648
0.00223605
0.00223496
0.0022336
0.00223249
0.00223204
0.00231032
0.00231141
0.00231281
0.00231399
0.00231452
0.00231419
0.00231313
0.00231172
0.00231051
0.00230993
0.00246593
0.00246695
0.00246842
0.0024698
0.00247056
0.00247043
0.00246944
0.00246797
0.00246656
0.00246575
0.00269746
0.00269838
0.00269994
0.00270155
0.00270262
0.00270275
0.00270188
0.00270033
0.00269868
0.00269757
0.00299921
0.003
0.00300164
0.0030035
0.00300491
0.00300533
0.0030046
0.00300299
0.0030011
0.00299964
0.00336185
0.00336248
0.00336415
0.00336625
0.003368
0.00336874
0.00336818
0.00336654
0.00336441
0.00336262
0.00377452
0.00377496
0.00377663
0.00377892
0.00378098
0.00378204
0.0037817
0.00378007
0.00377776
0.00377565
0.00422737
0.00422758
0.0042292
0.00423161
0.00423394
0.00423532
0.00423521
0.00423365
0.00423122
0.00422884
0.00471326
0.00471322
0.00471472
0.00471719
0.00471973
0.0047214
0.00472156
0.00472013
0.00471765
0.00471507
0.00522893
0.00522862
0.00522993
0.00523237
0.00523505
0.00523698
0.00523741
0.00523617
0.00523374
0.00523102
0.00577625
0.00577567
0.00577674
0.00577905
0.00578177
0.00578388
0.00578457
0.00578358
0.00578129
0.00577855
0.00636522
0.00636442
0.0063652
0.00636728
0.0063699
0.00637209
0.00637301
0.0063723
0.00637024
0.00636762
0.00702227
0.00702135
0.00702183
0.00702357
0.00702594
0.00702805
0.00702909
0.00702866
0.00702694
0.00702459
0.00781047
0.00780964
0.00780991
0.00781119
0.00781308
0.0078149
0.00781591
0.00781569
0.00781434
0.00781241
0.00824956
0.00824971
0.00825029
0.00825106
0.00825175
0.0082521
0.00825197
0.00825142
0.00825066
0.00824996
0.00824963
0.00824974
0.00825027
0.00825101
0.00825168
0.00825204
0.00825195
0.00825145
0.00825072
0.00825005
0.00781069
0.00780982
0.00780999
0.00781115
0.00781293
0.0078147
0.00781574
0.00781563
0.00781441
0.00781258
0.00702255
0.00702156
0.00702192
0.0070235
0.00702575
0.00702782
0.00702891
0.00702861
0.00702704
0.00702481
0.00636552
0.00636464
0.00636527
0.00636718
0.00636969
0.00637185
0.00637283
0.00637228
0.00637039
0.00636789
0.00577656
0.00577588
0.00577678
0.00577892
0.00578153
0.00578363
0.00578442
0.00578359
0.00578147
0.00577886
0.00522923
0.00522881
0.00522994
0.00523222
0.00523481
0.00523674
0.00523728
0.00523622
0.00523395
0.00523134
0.00471354
0.00471337
0.0047147
0.00471702
0.00471949
0.00472118
0.00472146
0.00472021
0.00471789
0.00471538
0.00422761
0.00422769
0.00422915
0.00423143
0.00423371
0.00423513
0.00423515
0.00423376
0.00423147
0.00422915
0.00377473
0.00377503
0.00377656
0.00377873
0.00378076
0.00378188
0.00378167
0.00378019
0.003778
0.00377593
0.00336201
0.00336251
0.00336406
0.00336606
0.0033678
0.00336861
0.00336819
0.00336668
0.00336465
0.00336287
0.00299934
0.00300001
0.00300153
0.00300332
0.00300474
0.00300524
0.00300463
0.00300314
0.00300131
0.00299986
0.00269755
0.00269836
0.00269983
0.0027014
0.00270248
0.00270269
0.00270192
0.00270047
0.00269887
0.00269774
0.00246597
0.00246692
0.00246832
0.00246967
0.00247046
0.00247039
0.00246949
0.00246809
0.00246671
0.00246588
0.00231033
0.00231137
0.00231273
0.0023139
0.00231446
0.00231419
0.00231318
0.00231182
0.00231061
0.00231
0.00223251
0.00223361
0.00223495
0.00223604
0.00223647
0.00223608
0.002235
0.00223365
0.00223253
0.00223206
0.0022325
0.00223361
0.00223496
0.00223606
0.00223649
0.00223609
0.002235
0.00223364
0.0022325
0.00223203
0.00231028
0.00231136
0.00231276
0.00231397
0.00231452
0.00231422
0.00231317
0.00231176
0.00231052
0.00230992
0.00246589
0.0024669
0.00246837
0.00246976
0.00247056
0.00247045
0.00246949
0.00246801
0.00246659
0.00246575
0.00269743
0.00269833
0.00269988
0.00270151
0.00270261
0.00270277
0.00270193
0.00270038
0.00269872
0.00269757
0.00299918
0.00299994
0.00300156
0.00300344
0.00300488
0.00300535
0.00300465
0.00300305
0.00300114
0.00299965
0.00336182
0.00336242
0.00336407
0.00336618
0.00336796
0.00336875
0.00336823
0.00336661
0.00336447
0.00336264
0.00377451
0.0037749
0.00377655
0.00377884
0.00378093
0.00378204
0.00378174
0.00378014
0.00377783
0.00377568
0.00422736
0.00422752
0.00422911
0.00423153
0.00423389
0.00423531
0.00423526
0.00423373
0.0042313
0.00422889
0.00471327
0.00471317
0.00471463
0.00471709
0.00471966
0.00472138
0.00472159
0.00472021
0.00471774
0.00471513
0.00522895
0.00522858
0.00522985
0.00523227
0.00523498
0.00523695
0.00523744
0.00523625
0.00523383
0.00523109
0.00577627
0.00577564
0.00577666
0.00577895
0.00578169
0.00578384
0.00578459
0.00578365
0.00578138
0.00577863
0.00636525
0.00636439
0.00636513
0.00636718
0.00636982
0.00637205
0.00637302
0.00637236
0.00637033
0.0063677
0.00702231
0.00702134
0.00702178
0.00702348
0.00702586
0.007028
0.00702909
0.00702871
0.00702701
0.00702466
0.0078105
0.00780964
0.00780987
0.00781113
0.00781301
0.00781485
0.0078159
0.00781573
0.00781441
0.00781248
0.00824956
0.00824969
0.00825026
0.00825104
0.00825174
0.0082521
0.00825199
0.00825145
0.00825068
0.00824998
0.00824963
0.00824973
0.00825026
0.008251
0.00825168
0.00825204
0.00825196
0.00825146
0.00825073
0.00825005
0.00781069
0.00780981
0.00780998
0.00781113
0.00781291
0.00781469
0.00781575
0.00781565
0.00781443
0.0078126
0.00702255
0.00702155
0.0070219
0.00702347
0.00702573
0.00702781
0.00702892
0.00702863
0.00702707
0.00702483
0.00636552
0.00636462
0.00636524
0.00636715
0.00636966
0.00637184
0.00637285
0.0063723
0.00637042
0.00636791
0.00577656
0.00577586
0.00577675
0.00577889
0.00578151
0.00578363
0.00578443
0.00578362
0.0057815
0.00577887
0.00522923
0.00522879
0.00522991
0.00523219
0.00523479
0.00523674
0.0052373
0.00523625
0.00523398
0.00523136
0.00471353
0.00471335
0.00471467
0.00471699
0.00471947
0.00472119
0.00472148
0.00472023
0.00471791
0.00471539
0.0042276
0.00422767
0.00422912
0.00423141
0.0042337
0.00423513
0.00423517
0.00423378
0.00423149
0.00422916
0.00377472
0.00377501
0.00377653
0.00377871
0.00378075
0.00378189
0.00378169
0.00378022
0.00377802
0.00377594
0.003362
0.00336249
0.00336403
0.00336605
0.00336779
0.00336862
0.00336821
0.0033667
0.00336467
0.00336287
0.00299932
0.00299999
0.0030015
0.00300331
0.00300473
0.00300525
0.00300465
0.00300316
0.00300133
0.00299986
0.00269753
0.00269834
0.00269981
0.00270139
0.00270249
0.0027027
0.00270194
0.00270048
0.00269888
0.00269774
0.00246596
0.0024669
0.00246831
0.00246966
0.00247046
0.00247041
0.00246951
0.0024681
0.00246672
0.00246587
0.00231031
0.00231135
0.00231271
0.0023139
0.00231447
0.0023142
0.0023132
0.00231183
0.00231061
0.00231
0.0022325
0.00223359
0.00223494
0.00223604
0.00223648
0.00223609
0.00223502
0.00223366
0.00223253
0.00223205
0.00223248
0.00223359
0.00223495
0.00223606
0.0022365
0.0022361
0.00223502
0.00223364
0.0022325
0.00223202
0.00231026
0.00231134
0.00231275
0.00231396
0.00231453
0.00231424
0.00231319
0.00231177
0.00231052
0.00230991
0.00246587
0.00246688
0.00246836
0.00246976
0.00247056
0.00247047
0.0024695
0.00246803
0.00246659
0.00246574
0.00269741
0.00269831
0.00269986
0.0027015
0.00270262
0.00270279
0.00270194
0.0027004
0.00269873
0.00269757
0.00299917
0.00299992
0.00300154
0.00300343
0.00300488
0.00300536
0.00300467
0.00300307
0.00300115
0.00299965
0.00336181
0.00336239
0.00336405
0.00336617
0.00336796
0.00336876
0.00336825
0.00336663
0.00336449
0.00336264
0.00377449
0.00377487
0.00377652
0.00377882
0.00378093
0.00378205
0.00378176
0.00378016
0.00377784
0.00377569
0.00422735
0.0042275
0.00422908
0.0042315
0.00423387
0.00423532
0.00423528
0.00423376
0.00423132
0.0042289
0.00471326
0.00471315
0.00471459
0.00471706
0.00471965
0.00472139
0.00472161
0.00472024
0.00471777
0.00471514
0.00522894
0.00522856
0.00522981
0.00523224
0.00523496
0.00523695
0.00523746
0.00523628
0.00523386
0.00523111
0.00577627
0.00577562
0.00577663
0.00577892
0.00578167
0.00578384
0.00578461
0.00578368
0.00578141
0.00577865
0.00636525
0.00636438
0.0063651
0.00636715
0.0063698
0.00637204
0.00637303
0.00637239
0.00637036
0.00636772
0.00702231
0.00702132
0.00702175
0.00702345
0.00702584
0.007028
0.0070291
0.00702873
0.00702704
0.00702468
0.00781051
0.00780963
0.00780985
0.0078111
0.00781299
0.00781485
0.00781591
0.00781575
0.00781443
0.0078125
0.00824955
0.00824969
0.00825026
0.00825103
0.00825173
0.0082521
0.00825199
0.00825146
0.00825069
0.00824998
0.00824963
0.00824973
0.00825026
0.008251
0.00825168
0.00825204
0.00825196
0.00825146
0.00825073
0.00825005
0.00781069
0.00780981
0.00780997
0.00781112
0.00781291
0.00781469
0.00781575
0.00781565
0.00781444
0.00781261
0.00702255
0.00702155
0.00702189
0.00702347
0.00702573
0.00702781
0.00702893
0.00702864
0.00702708
0.00702484
0.00636552
0.00636462
0.00636523
0.00636714
0.00636966
0.00637184
0.00637285
0.00637231
0.00637043
0.00636792
0.00577655
0.00577585
0.00577674
0.00577889
0.00578151
0.00578363
0.00578444
0.00578363
0.00578151
0.00577888
0.00522923
0.00522878
0.0052299
0.00523219
0.00523479
0.00523674
0.00523731
0.00523626
0.00523399
0.00523136
0.00471353
0.00471334
0.00471466
0.00471699
0.00471947
0.00472119
0.00472149
0.00472024
0.00471792
0.0047154
0.0042276
0.00422766
0.00422911
0.0042314
0.0042337
0.00423514
0.00423518
0.00423379
0.00423149
0.00422916
0.00377471
0.003775
0.00377652
0.00377871
0.00378075
0.00378189
0.0037817
0.00378022
0.00377802
0.00377593
0.00336199
0.00336248
0.00336402
0.00336604
0.00336779
0.00336862
0.00336821
0.00336671
0.00336467
0.00336287
0.00299932
0.00299998
0.0030015
0.00300331
0.00300474
0.00300525
0.00300466
0.00300316
0.00300133
0.00299985
0.00269753
0.00269834
0.00269981
0.00270138
0.00270249
0.0027027
0.00270194
0.00270049
0.00269888
0.00269773
0.00246595
0.00246689
0.0024683
0.00246966
0.00247047
0.00247041
0.00246951
0.0024681
0.00246671
0.00246587
0.00231031
0.00231134
0.00231271
0.0023139
0.00231447
0.0023142
0.0023132
0.00231183
0.0023106
0.00230999
0.00223249
0.00223359
0.00223494
0.00223604
0.00223648
0.00223609
0.00223502
0.00223366
0.00223253
0.00223204
0.00223247
0.00223358
0.00223495
0.00223606
0.0022365
0.00223611
0.00223502
0.00223365
0.0022325
0.00223201
0.00231025
0.00231133
0.00231275
0.00231396
0.00231453
0.00231424
0.00231319
0.00231178
0.00231052
0.00230991
0.00246587
0.00246687
0.00246835
0.00246976
0.00247057
0.00247047
0.00246951
0.00246803
0.00246659
0.00246573
0.0026974
0.0026983
0.00269986
0.0027015
0.00270262
0.00270279
0.00270195
0.0027004
0.00269873
0.00269756
0.00299916
0.00299991
0.00300154
0.00300343
0.00300489
0.00300537
0.00300468
0.00300308
0.00300116
0.00299965
0.0033618
0.00336238
0.00336404
0.00336616
0.00336796
0.00336876
0.00336826
0.00336663
0.00336449
0.00336264
0.00377449
0.00377486
0.00377651
0.00377882
0.00378093
0.00378206
0.00378177
0.00378017
0.00377785
0.00377569
0.00422735
0.00422749
0.00422907
0.0042315
0.00423388
0.00423532
0.00423529
0.00423377
0.00423133
0.0042289
0.00471325
0.00471314
0.00471458
0.00471706
0.00471965
0.00472139
0.00472162
0.00472025
0.00471777
0.00471514
0.00522894
0.00522855
0.0052298
0.00523224
0.00523496
0.00523695
0.00523747
0.00523629
0.00523386
0.00523111
0.00577627
0.00577561
0.00577661
0.00577891
0.00578166
0.00578384
0.00578462
0.00578369
0.00578142
0.00577865
0.00636525
0.00636437
0.00636509
0.00636714
0.00636979
0.00637205
0.00637304
0.0063724
0.00637037
0.00636772
0.00702231
0.00702132
0.00702174
0.00702345
0.00702583
0.007028
0.00702911
0.00702874
0.00702705
0.00702469
0.00781051
0.00780962
0.00780985
0.0078111
0.00781299
0.00781485
0.00781592
0.00781576
0.00781444
0.0078125
0.00824955
0.00824968
0.00825025
0.00825103
0.00825173
0.0082521
0.008252
0.00825146
0.00825069
0.00824998
0.00824962
0.00824973
0.00825026
0.008251
0.00825168
0.00825204
0.00825196
0.00825146
0.00825073
0.00825005
0.00781069
0.00780981
0.00780997
0.00781112
0.00781291
0.00781469
0.00781576
0.00781566
0.00781444
0.00781261
0.00702255
0.00702155
0.00702189
0.00702347
0.00702573
0.00702782
0.00702893
0.00702864
0.00702708
0.00702484
0.00636552
0.00636462
0.00636523
0.00636714
0.00636966
0.00637184
0.00637286
0.00637232
0.00637043
0.00636792
0.00577655
0.00577585
0.00577674
0.00577889
0.00578151
0.00578363
0.00578444
0.00578363
0.00578151
0.00577888
0.00522922
0.00522877
0.0052299
0.00523219
0.00523479
0.00523674
0.00523731
0.00523626
0.00523399
0.00523136
0.00471353
0.00471334
0.00471465
0.00471698
0.00471947
0.00472119
0.00472149
0.00472025
0.00471792
0.0047154
0.0042276
0.00422766
0.00422911
0.0042314
0.0042337
0.00423514
0.00423518
0.0042338
0.0042315
0.00422916
0.00377471
0.003775
0.00377652
0.00377871
0.00378075
0.0037819
0.0037817
0.00378023
0.00377802
0.00377593
0.00336199
0.00336248
0.00336402
0.00336604
0.00336779
0.00336863
0.00336821
0.00336671
0.00336467
0.00336287
0.00299931
0.00299998
0.0030015
0.00300331
0.00300474
0.00300525
0.00300466
0.00300316
0.00300133
0.00299985
0.00269752
0.00269834
0.00269981
0.00270138
0.00270249
0.0027027
0.00270194
0.00270049
0.00269888
0.00269773
0.00246595
0.00246689
0.0024683
0.00246966
0.00247047
0.00247041
0.00246951
0.0024681
0.00246671
0.00246587
0.0023103
0.00231134
0.00231271
0.0023139
0.00231447
0.0023142
0.0023132
0.00231183
0.0023106
0.00230999
0.00223249
0.00223358
0.00223494
0.00223604
0.00223648
0.00223609
0.00223502
0.00223366
0.00223253
0.00223204
0.00223247
0.00223358
0.00223495
0.00223606
0.0022365
0.00223611
0.00223502
0.00223364
0.0022325
0.00223201
0.00231025
0.00231133
0.00231274
0.00231396
0.00231453
0.00231424
0.00231319
0.00231177
0.00231052
0.0023099
0.00246586
0.00246687
0.00246835
0.00246976
0.00247057
0.00247047
0.00246951
0.00246803
0.00246659
0.00246573
0.0026974
0.0026983
0.00269986
0.0027015
0.00270262
0.00270279
0.00270195
0.0027004
0.00269873
0.00269756
0.00299916
0.00299991
0.00300154
0.00300343
0.00300489
0.00300537
0.00300468
0.00300308
0.00300115
0.00299965
0.0033618
0.00336238
0.00336404
0.00336616
0.00336796
0.00336876
0.00336826
0.00336664
0.00336449
0.00336264
0.00377448
0.00377486
0.00377651
0.00377882
0.00378093
0.00378206
0.00378178
0.00378017
0.00377785
0.00377569
0.00422734
0.00422749
0.00422907
0.00423149
0.00423388
0.00423533
0.00423529
0.00423377
0.00423133
0.0042289
0.00471325
0.00471313
0.00471458
0.00471706
0.00471965
0.00472139
0.00472163
0.00472025
0.00471777
0.00471514
0.00522894
0.00522855
0.0052298
0.00523224
0.00523496
0.00523696
0.00523747
0.00523629
0.00523387
0.00523111
0.00577626
0.00577561
0.00577661
0.00577891
0.00578166
0.00578384
0.00578462
0.0057837
0.00578142
0.00577865
0.00636525
0.00636437
0.00636508
0.00636714
0.0063698
0.00637205
0.00637304
0.0063724
0.00637037
0.00636772
0.00702231
0.00702132
0.00702174
0.00702345
0.00702583
0.007028
0.00702911
0.00702875
0.00702705
0.00702469
0.00781051
0.00780962
0.00780985
0.0078111
0.00781299
0.00781485
0.00781592
0.00781576
0.00781444
0.0078125
0.00824955
0.00824968
0.00825025
0.00825103
0.00825173
0.0082521
0.008252
0.00825146
0.00825069
0.00824998
0.00824962
0.00824973
0.00825026
0.008251
0.00825168
0.00825204
0.00825196
0.00825146
0.00825073
0.00825005
0.00781069
0.00780981
0.00780997
0.00781112
0.00781291
0.00781469
0.00781576
0.00781566
0.00781444
0.00781261
0.00702255
0.00702155
0.00702189
0.00702347
0.00702573
0.00702782
0.00702893
0.00702864
0.00702708
0.00702484
0.00636552
0.00636462
0.00636523
0.00636714
0.00636966
0.00637184
0.00637286
0.00637232
0.00637043
0.00636792
0.00577655
0.00577585
0.00577674
0.00577889
0.00578151
0.00578363
0.00578444
0.00578363
0.00578151
0.00577888
0.00522922
0.00522877
0.0052299
0.00523218
0.00523479
0.00523674
0.00523731
0.00523626
0.00523399
0.00523136
0.00471353
0.00471334
0.00471465
0.00471698
0.00471947
0.00472119
0.00472149
0.00472025
0.00471792
0.0047154
0.0042276
0.00422766
0.00422911
0.0042314
0.0042337
0.00423514
0.00423518
0.0042338
0.0042315
0.00422916
0.00377471
0.003775
0.00377652
0.00377871
0.00378075
0.0037819
0.0037817
0.00378023
0.00377803
0.00377593
0.00336199
0.00336248
0.00336402
0.00336604
0.00336779
0.00336862
0.00336821
0.00336671
0.00336467
0.00336287
0.00299931
0.00299998
0.0030015
0.0030033
0.00300474
0.00300525
0.00300466
0.00300316
0.00300133
0.00299985
0.00269752
0.00269834
0.0026998
0.00270138
0.00270249
0.0027027
0.00270194
0.00270049
0.00269888
0.00269773
0.00246595
0.00246689
0.0024683
0.00246966
0.00247047
0.00247041
0.00246951
0.0024681
0.00246671
0.00246587
0.0023103
0.00231134
0.00231271
0.0023139
0.00231447
0.0023142
0.0023132
0.00231183
0.0023106
0.00230999
0.00223249
0.00223358
0.00223494
0.00223604
0.00223648
0.00223609
0.00223502
0.00223366
0.00223253
0.00223204
0.00223247
0.00223358
0.00223495
0.00223606
0.0022365
0.00223611
0.00223502
0.00223364
0.0022325
0.00223201
0.00231025
0.00231133
0.00231274
0.00231396
0.00231453
0.00231424
0.00231319
0.00231177
0.00231052
0.0023099
0.00246586
0.00246687
0.00246835
0.00246976
0.00247057
0.00247047
0.00246951
0.00246803
0.00246659
0.00246573
0.0026974
0.0026983
0.00269986
0.0027015
0.00270262
0.00270279
0.00270195
0.0027004
0.00269873
0.00269756
0.00299916
0.00299991
0.00300154
0.00300343
0.00300489
0.00300537
0.00300468
0.00300308
0.00300116
0.00299965
0.0033618
0.00336238
0.00336404
0.00336616
0.00336796
0.00336876
0.00336826
0.00336664
0.00336449
0.00336264
0.00377448
0.00377486
0.00377651
0.00377882
0.00378093
0.00378206
0.00378178
0.00378017
0.00377785
0.00377569
0.00422734
0.00422749
0.00422907
0.00423149
0.00423388
0.00423533
0.00423529
0.00423377
0.00423133
0.0042289
0.00471325
0.00471313
0.00471458
0.00471706
0.00471965
0.00472139
0.00472163
0.00472025
0.00471777
0.00471514
0.00522894
0.00522855
0.0052298
0.00523224
0.00523496
0.00523696
0.00523747
0.00523629
0.00523387
0.00523111
0.00577627
0.00577561
0.00577661
0.00577891
0.00578166
0.00578384
0.00578462
0.0057837
0.00578142
0.00577865
0.00636525
0.00636437
0.00636508
0.00636714
0.00636979
0.00637205
0.00637304
0.0063724
0.00637037
0.00636772
0.00702231
0.00702132
0.00702174
0.00702344
0.00702583
0.007028
0.00702911
0.00702875
0.00702705
0.00702469
0.00781051
0.00780962
0.00780985
0.0078111
0.00781299
0.00781485
0.00781592
0.00781576
0.00781444
0.0078125
0.00824955
0.00824968
0.00825025
0.00825103
0.00825173
0.0082521
0.008252
0.00825146
0.00825069
0.00824998
0.00824963
0.00824973
0.00825026
0.008251
0.00825168
0.00825204
0.00825196
0.00825146
0.00825073
0.00825005
0.0078107
0.00780981
0.00780997
0.00781112
0.00781291
0.00781469
0.00781575
0.00781565
0.00781444
0.00781261
0.00702255
0.00702155
0.00702189
0.00702347
0.00702573
0.00702781
0.00702893
0.00702864
0.00702708
0.00702484
0.00636552
0.00636462
0.00636523
0.00636714
0.00636966
0.00637184
0.00637285
0.00637231
0.00637043
0.00636792
0.00577656
0.00577586
0.00577674
0.00577889
0.00578151
0.00578363
0.00578444
0.00578363
0.00578151
0.00577888
0.00522923
0.00522878
0.0052299
0.00523219
0.00523479
0.00523674
0.0052373
0.00523626
0.00523399
0.00523136
0.00471353
0.00471334
0.00471466
0.00471698
0.00471947
0.00472119
0.00472149
0.00472024
0.00471792
0.0047154
0.0042276
0.00422766
0.00422911
0.0042314
0.0042337
0.00423514
0.00423518
0.00423379
0.0042315
0.00422916
0.00377471
0.003775
0.00377652
0.00377871
0.00378075
0.00378189
0.0037817
0.00378022
0.00377803
0.00377594
0.00336199
0.00336248
0.00336402
0.00336604
0.00336779
0.00336862
0.00336821
0.00336671
0.00336467
0.00336287
0.00299932
0.00299998
0.0030015
0.0030033
0.00300474
0.00300525
0.00300466
0.00300316
0.00300133
0.00299985
0.00269753
0.00269834
0.00269981
0.00270138
0.00270249
0.0027027
0.00270194
0.00270049
0.00269888
0.00269774
0.00246595
0.00246689
0.0024683
0.00246966
0.00247047
0.00247041
0.00246951
0.00246811
0.00246671
0.00246587
0.00231031
0.00231134
0.00231271
0.0023139
0.00231447
0.0023142
0.0023132
0.00231183
0.00231061
0.00230999
0.00223249
0.00223359
0.00223494
0.00223604
0.00223648
0.00223609
0.00223502
0.00223366
0.00223253
0.00223204
0.00223247
0.00223358
0.00223495
0.00223606
0.0022365
0.00223611
0.00223502
0.00223365
0.0022325
0.00223201
0.00231025
0.00231133
0.00231275
0.00231396
0.00231453
0.00231424
0.00231319
0.00231178
0.00231052
0.00230991
0.00246587
0.00246687
0.00246835
0.00246976
0.00247057
0.00247047
0.00246951
0.00246803
0.00246659
0.00246574
0.00269741
0.0026983
0.00269986
0.0027015
0.00270262
0.00270279
0.00270195
0.0027004
0.00269873
0.00269756
0.00299916
0.00299991
0.00300154
0.00300343
0.00300489
0.00300537
0.00300468
0.00300308
0.00300116
0.00299965
0.0033618
0.00336238
0.00336404
0.00336616
0.00336796
0.00336876
0.00336826
0.00336664
0.00336449
0.00336264
0.00377449
0.00377486
0.00377651
0.00377882
0.00378093
0.00378206
0.00378177
0.00378017
0.00377785
0.00377569
0.00422735
0.00422749
0.00422907
0.00423149
0.00423387
0.00423532
0.00423529
0.00423377
0.00423133
0.0042289
0.00471325
0.00471314
0.00471458
0.00471706
0.00471965
0.00472139
0.00472162
0.00472025
0.00471777
0.00471514
0.00522894
0.00522855
0.0052298
0.00523224
0.00523496
0.00523695
0.00523746
0.00523629
0.00523387
0.00523111
0.00577627
0.00577561
0.00577662
0.00577891
0.00578166
0.00578384
0.00578462
0.00578369
0.00578142
0.00577865
0.00636525
0.00636437
0.00636509
0.00636714
0.00636979
0.00637205
0.00637304
0.0063724
0.00637037
0.00636772
0.00702231
0.00702132
0.00702174
0.00702345
0.00702583
0.007028
0.00702911
0.00702874
0.00702705
0.00702469
0.00781051
0.00780963
0.00780985
0.0078111
0.00781299
0.00781485
0.00781592
0.00781576
0.00781444
0.0078125
0.00824955
0.00824968
0.00825025
0.00825103
0.00825173
0.0082521
0.008252
0.00825146
0.00825069
0.00824998
0.00824963
0.00824973
0.00825026
0.008251
0.00825168
0.00825204
0.00825196
0.00825146
0.00825073
0.00825005
0.0078107
0.00780981
0.00780998
0.00781113
0.00781291
0.00781469
0.00781575
0.00781565
0.00781443
0.0078126
0.00702256
0.00702155
0.0070219
0.00702347
0.00702573
0.00702781
0.00702892
0.00702863
0.00702707
0.00702484
0.00636553
0.00636463
0.00636524
0.00636715
0.00636966
0.00637184
0.00637285
0.0063723
0.00637042
0.00636792
0.00577656
0.00577586
0.00577675
0.00577889
0.00578151
0.00578362
0.00578443
0.00578362
0.0057815
0.00577888
0.00522923
0.00522879
0.00522991
0.00523219
0.00523479
0.00523674
0.0052373
0.00523625
0.00523398
0.00523136
0.00471353
0.00471335
0.00471467
0.00471699
0.00471947
0.00472119
0.00472148
0.00472024
0.00471791
0.0047154
0.00422761
0.00422767
0.00422912
0.00423141
0.00423369
0.00423513
0.00423517
0.00423378
0.00423149
0.00422916
0.00377472
0.00377501
0.00377653
0.00377871
0.00378075
0.00378189
0.00378169
0.00378022
0.00377802
0.00377594
0.003362
0.00336249
0.00336403
0.00336604
0.00336779
0.00336862
0.00336821
0.0033667
0.00336467
0.00336288
0.00299932
0.00299999
0.0030015
0.00300331
0.00300473
0.00300525
0.00300465
0.00300316
0.00300133
0.00299986
0.00269753
0.00269834
0.00269981
0.00270138
0.00270248
0.0027027
0.00270194
0.00270048
0.00269888
0.00269774
0.00246596
0.0024669
0.00246831
0.00246966
0.00247046
0.00247041
0.00246951
0.0024681
0.00246672
0.00246587
0.00231031
0.00231135
0.00231271
0.0023139
0.00231447
0.0023142
0.0023132
0.00231183
0.00231061
0.00231
0.0022325
0.00223359
0.00223494
0.00223604
0.00223648
0.00223609
0.00223502
0.00223366
0.00223253
0.00223205
0.00223248
0.00223359
0.00223495
0.00223606
0.0022365
0.0022361
0.00223502
0.00223365
0.0022325
0.00223202
0.00231026
0.00231134
0.00231275
0.00231396
0.00231453
0.00231424
0.00231319
0.00231178
0.00231053
0.00230991
0.00246587
0.00246688
0.00246836
0.00246976
0.00247056
0.00247047
0.0024695
0.00246803
0.00246659
0.00246574
0.00269741
0.0026983
0.00269986
0.0027015
0.00270261
0.00270279
0.00270194
0.0027004
0.00269873
0.00269757
0.00299917
0.00299992
0.00300154
0.00300343
0.00300488
0.00300536
0.00300467
0.00300307
0.00300116
0.00299965
0.00336181
0.00336239
0.00336405
0.00336616
0.00336796
0.00336876
0.00336825
0.00336663
0.00336449
0.00336265
0.00377449
0.00377487
0.00377652
0.00377882
0.00378092
0.00378205
0.00378176
0.00378016
0.00377785
0.00377569
0.00422735
0.0042275
0.00422908
0.0042315
0.00423387
0.00423532
0.00423528
0.00423376
0.00423132
0.0042289
0.00471326
0.00471315
0.00471459
0.00471706
0.00471965
0.00472139
0.00472161
0.00472024
0.00471777
0.00471514
0.00522894
0.00522856
0.00522981
0.00523224
0.00523496
0.00523695
0.00523745
0.00523628
0.00523386
0.00523111
0.00577627
0.00577562
0.00577662
0.00577892
0.00578166
0.00578384
0.00578461
0.00578368
0.00578141
0.00577865
0.00636525
0.00636438
0.0063651
0.00636715
0.0063698
0.00637204
0.00637303
0.00637239
0.00637036
0.00636772
0.00702231
0.00702133
0.00702175
0.00702345
0.00702584
0.007028
0.0070291
0.00702873
0.00702704
0.00702468
0.00781051
0.00780963
0.00780985
0.0078111
0.00781299
0.00781484
0.00781591
0.00781575
0.00781443
0.0078125
0.00824955
0.00824969
0.00825026
0.00825103
0.00825173
0.0082521
0.00825199
0.00825146
0.00825069
0.00824998
0.00824963
0.00824974
0.00825027
0.00825101
0.00825168
0.00825204
0.00825195
0.00825145
0.00825072
0.00825005
0.00781069
0.00780982
0.00780999
0.00781115
0.00781293
0.0078147
0.00781574
0.00781563
0.00781441
0.00781258
0.00702255
0.00702157
0.00702192
0.0070235
0.00702575
0.00702782
0.00702891
0.00702861
0.00702704
0.00702482
0.00636552
0.00636464
0.00636527
0.00636718
0.00636968
0.00637184
0.00637283
0.00637228
0.00637039
0.0063679
0.00577656
0.00577588
0.00577678
0.00577892
0.00578153
0.00578363
0.00578442
0.0057836
0.00578147
0.00577886
0.00522924
0.00522881
0.00522994
0.00523222
0.00523481
0.00523674
0.00523728
0.00523622
0.00523395
0.00523134
0.00471354
0.00471337
0.0047147
0.00471702
0.00471948
0.00472118
0.00472146
0.00472021
0.00471789
0.00471538
0.00422761
0.00422769
0.00422915
0.00423143
0.00423371
0.00423513
0.00423515
0.00423376
0.00423147
0.00422915
0.00377473
0.00377503
0.00377656
0.00377873
0.00378076
0.00378188
0.00378167
0.00378019
0.003778
0.00377593
0.00336201
0.00336251
0.00336405
0.00336606
0.0033678
0.00336861
0.00336819
0.00336668
0.00336465
0.00336287
0.00299934
0.00300001
0.00300152
0.00300332
0.00300473
0.00300524
0.00300463
0.00300314
0.00300132
0.00299986
0.00269755
0.00269836
0.00269983
0.00270139
0.00270248
0.00270269
0.00270192
0.00270047
0.00269887
0.00269774
0.00246597
0.00246691
0.00246832
0.00246967
0.00247046
0.00247039
0.00246949
0.00246809
0.00246671
0.00246588
0.00231033
0.00231136
0.00231272
0.0023139
0.00231446
0.00231419
0.00231318
0.00231182
0.00231061
0.00231001
0.00223251
0.00223361
0.00223495
0.00223604
0.00223647
0.00223608
0.00223501
0.00223366
0.00223253
0.00223206
0.00223249
0.00223361
0.00223496
0.00223606
0.00223649
0.00223609
0.002235
0.00223364
0.0022325
0.00223203
0.00231028
0.00231136
0.00231276
0.00231397
0.00231452
0.00231422
0.00231317
0.00231176
0.00231052
0.00230992
0.00246589
0.0024669
0.00246837
0.00246976
0.00247056
0.00247045
0.00246949
0.00246801
0.00246659
0.00246575
0.00269743
0.00269833
0.00269988
0.00270151
0.00270261
0.00270277
0.00270193
0.00270038
0.00269872
0.00269757
0.00299918
0.00299994
0.00300156
0.00300344
0.00300488
0.00300535
0.00300465
0.00300305
0.00300114
0.00299965
0.00336182
0.00336241
0.00336407
0.00336618
0.00336796
0.00336874
0.00336823
0.00336661
0.00336447
0.00336264
0.00377451
0.0037749
0.00377655
0.00377884
0.00378093
0.00378204
0.00378174
0.00378014
0.00377783
0.00377569
0.00422736
0.00422752
0.00422911
0.00423152
0.00423388
0.00423531
0.00423526
0.00423373
0.0042313
0.00422889
0.00471327
0.00471317
0.00471463
0.00471709
0.00471966
0.00472138
0.00472159
0.00472021
0.00471774
0.00471513
0.00522895
0.00522858
0.00522984
0.00523227
0.00523497
0.00523695
0.00523744
0.00523625
0.00523383
0.0052311
0.00577627
0.00577564
0.00577666
0.00577895
0.00578168
0.00578384
0.00578459
0.00578365
0.00578138
0.00577863
0.00636525
0.0063644
0.00636513
0.00636718
0.00636982
0.00637205
0.00637302
0.00637236
0.00637033
0.0063677
0.00702231
0.00702134
0.00702178
0.00702348
0.00702586
0.007028
0.00702909
0.00702871