/*--------------------------------*- C++ -*----------------------------------*\
| =========                 |                                                 |
| \\      /  F ield         | OpenFOAM: The Open Source CFD Toolbox           |
|  \\    /   O peration     | Version:  2.3.0                                 |
|   \\  /    A nd           | Web:      www.OpenFOAM.org                      |
|    \\/     M anipulation  |                                                 |
\*---------------------------------------------------------------------------*/
FoamFile
{
    version     2.0;
    format      ascii;
    class       volScalarField;
    location    "400";
    object      nut;
}
// * * * * * * * * * * * * * * * * * * * * * * * * * * * * * * * * * * * * * //

dimensions      [0 2 -1 0 0 0 0];

internalField   nonuniform List<scalar> 
3000
(
0.000679893
0.000679892
0.00067991
0.000679939
0.00067997
0.00067999
0.000679992
0.000679976
0.000679947
0.000679916
0.00157538
0.001575
0.00157494
0.00157521
0.00157573
0.00157633
0.00157676
0.00157685
0.00157657
0.00157603
0.00231748
0.00231678
0.00231678
0.00231749
0.00231867
0.00231986
0.00232063
0.00232066
0.00231996
0.0023188
0.00293049
0.00292955
0.00292978
0.00293108
0.00293299
0.0029348
0.00293582
0.00293567
0.0029344
0.0029325
0.00341437
0.00341337
0.00341397
0.00341595
0.00341859
0.00342092
0.00342206
0.00342157
0.00341963
0.00341698
0.00378238
0.00378147
0.00378256
0.00378524
0.00378853
0.00379124
0.00379233
0.00379138
0.00378874
0.0037854
0.00405215
0.00405149
0.00405314
0.00405649
0.00406032
0.00406323
0.00406412
0.00406262
0.00405929
0.0040554
0.0042437
0.00424341
0.00424565
0.00424959
0.00425381
0.00425674
0.00425728
0.00425519
0.00425126
0.00424697
0.00437923
0.00437944
0.00438227
0.00438669
0.0043911
0.00439387
0.00439394
0.00439126
0.00438682
0.00438231
0.00448299
0.00448378
0.00448718
0.00449195
0.00449635
0.00449876
0.00449825
0.00449499
0.00449018
0.00448566
0.00457927
0.00458076
0.0045847
0.00458966
0.00459385
0.0045957
0.00459449
0.00459065
0.00458562
0.00458131
0.00468694
0.00468923
0.00469369
0.00469873
0.00470249
0.00470357
0.00470154
0.00469715
0.00469202
0.00468812
0.00480982
0.00481297
0.00481796
0.00482297
0.00482617
0.00482636
0.00482343
0.00481848
0.00481334
0.00480998
0.00492817
0.00493213
0.00493759
0.00494257
0.00494523
0.00494457
0.0049408
0.00493533
0.00493021
0.00492736
0.00500357
0.00500805
0.00501384
0.00501882
0.00502115
0.00501994
0.00501562
0.0050098
0.00500466
0.00500214
0.00500348
0.00500802
0.00501387
0.0050189
0.00502124
0.00502
0.00501562
0.00500973
0.00500454
0.005002
0.00492792
0.00493203
0.00493767
0.00494278
0.00494548
0.00494474
0.00494081
0.00493515
0.00492988
0.00492699
0.00480944
0.00481281
0.00481806
0.00482327
0.00482653
0.00482661
0.00482346
0.00481823
0.00481289
0.00480946
0.0046865
0.00468902
0.00469378
0.00469905
0.0047029
0.00470388
0.00470161
0.0046969
0.00469153
0.00468753
0.00457879
0.00458051
0.00458475
0.00458997
0.00459427
0.00459604
0.0045946
0.00459045
0.00458516
0.00458072
0.0044825
0.0044835
0.00448718
0.00449221
0.00449675
0.00449912
0.00449841
0.00449485
0.00448978
0.00448511
0.00437875
0.00437912
0.00438221
0.00438689
0.00439146
0.00439423
0.00439414
0.00439119
0.00438649
0.00438181
0.00424324
0.00424308
0.00424555
0.00424973
0.00425412
0.00425709
0.0042575
0.00425519
0.004251
0.00424653
0.00405173
0.00405116
0.004053
0.00405657
0.00406058
0.00406355
0.00406435
0.00406267
0.00405911
0.00405504
0.00378202
0.00378117
0.00378241
0.00378527
0.00378873
0.00379151
0.00379256
0.00379146
0.00378862
0.00378512
0.00341409
0.00341311
0.00341382
0.00341595
0.00341873
0.00342114
0.00342226
0.00342166
0.00341957
0.00341678
0.00293028
0.00292936
0.00292965
0.00293106
0.00293308
0.00293495
0.00293598
0.00293576
0.00293438
0.00293237
0.00231735
0.00231665
0.00231669
0.00231746
0.00231871
0.00231996
0.00232073
0.00232073
0.00231997
0.00231874
0.00157533
0.00157494
0.00157489
0.00157519
0.00157575
0.00157637
0.00157681
0.00157689
0.00157658
0.001576
0.00067989
0.00067989
0.000679909
0.00067994
0.000679972
0.000679993
0.000679994
0.000679976
0.000679946
0.000679914
0.000679894
0.000679891
0.000679909
0.000679938
0.000679969
0.00067999
0.000679993
0.000679977
0.000679948
0.000679917
0.0015754
0.00157501
0.00157493
0.00157519
0.00157571
0.00157631
0.00157675
0.00157686
0.00157658
0.00157605
0.00231751
0.00231678
0.00231676
0.00231745
0.00231862
0.00231983
0.00232062
0.00232068
0.00232
0.00231884
0.00293053
0.00292955
0.00292974
0.00293102
0.00293292
0.00293475
0.00293582
0.0029357
0.00293446
0.00293256
0.00341442
0.00341336
0.00341391
0.00341585
0.0034185
0.00342087
0.00342206
0.00342162
0.00341971
0.00341706
0.00378242
0.00378144
0.00378247
0.00378512
0.00378843
0.00379119
0.00379235
0.00379146
0.00378885
0.0037855
0.00405218
0.00405144
0.00405302
0.00405635
0.00406021
0.00406318
0.00406415
0.00406272
0.00405942
0.00405551
0.00424371
0.00424334
0.00424551
0.00424944
0.00425369
0.0042567
0.00425733
0.00425531
0.0042514
0.00424707
0.00437923
0.00437934
0.00438211
0.00438652
0.00439098
0.00439384
0.00439401
0.00439139
0.00438697
0.00438241
0.00448297
0.00448366
0.00448701
0.00449178
0.00449625
0.00449876
0.00449834
0.00449514
0.00449033
0.00448575
0.00457922
0.00458062
0.00458451
0.0045895
0.00459376
0.00459571
0.0045946
0.00459081
0.00458577
0.00458138
0.00468686
0.00468906
0.0046935
0.00469858
0.00470243
0.00470362
0.00470168
0.00469731
0.00469215
0.00468816
0.0048097
0.00481278
0.00481776
0.00482283
0.00482614
0.00482644
0.00482359
0.00481864
0.00481345
0.00480998
0.00492802
0.00493191
0.00493739
0.00494245
0.00494523
0.00494467
0.00494097
0.0049355
0.0049303
0.00492733
0.0050034
0.00500782
0.00501363
0.0050187
0.00502116
0.00502006
0.0050158
0.00500997
0.00500474
0.00500209
0.0050033
0.00500778
0.00501366
0.00501878
0.00502125
0.00502013
0.00501581
0.0050099
0.00500462
0.00500195
0.00492775
0.0049318
0.00493746
0.00494266
0.00494548
0.00494485
0.00494099
0.00493532
0.00492997
0.00492696
0.00480931
0.00481261
0.00481785
0.00482313
0.00482651
0.0048267
0.00482362
0.0048184
0.004813
0.00480945
0.0046864
0.00468884
0.00469358
0.0046989
0.00470284
0.00470394
0.00470175
0.00469708
0.00469166
0.00468756
0.00457873
0.00458035
0.00458455
0.0045898
0.00459419
0.00459607
0.00459472
0.00459062
0.0045853
0.00458078
0.00448246
0.00448336
0.00448699
0.00449203
0.00449665
0.00449913
0.00449852
0.00449501
0.00448993
0.00448519
0.00437874
0.00437901
0.00438204
0.00438672
0.00439135
0.00439421
0.00439422
0.00439134
0.00438664
0.00438191
0.00424325
0.004243
0.0042454
0.00424957
0.004254
0.00425705
0.00425757
0.00425532
0.00425115
0.00424663
0.00405176
0.0040511
0.00405288
0.00405642
0.00406046
0.0040635
0.00406439
0.00406277
0.00405925
0.00405514
0.00378206
0.00378113
0.00378231
0.00378515
0.00378863
0.00379146
0.00379258
0.00379155
0.00378874
0.00378522
0.00341413
0.00341309
0.00341375
0.00341585
0.00341864
0.00342108
0.00342226
0.00342172
0.00341966
0.00341686
0.00293032
0.00292935
0.00292961
0.00293099
0.00293301
0.00293491
0.00293598
0.0029358
0.00293445
0.00293244
0.00231738
0.00231665
0.00231667
0.00231742
0.00231866
0.00231992
0.00232072
0.00232075
0.00232001
0.00231878
0.00157534
0.00157494
0.00157488
0.00157517
0.00157573
0.00157635
0.0015768
0.0015769
0.0015766
0.00157602
0.00067989
0.000679889
0.000679908
0.000679939
0.000679971
0.000679992
0.000679995
0.000679977
0.000679947
0.000679915
0.000679894
0.000679891
0.000679908
0.000679938
0.000679969
0.00067999
0.000679993
0.000679977
0.000679948
0.000679917
0.0015754
0.001575
0.00157493
0.00157519
0.00157571
0.00157631
0.00157675
0.00157686
0.00157659
0.00157605
0.00231752
0.00231678
0.00231675
0.00231744
0.00231861
0.00231982
0.00232062
0.00232069
0.00232001
0.00231886
0.00293053
0.00292955
0.00292973
0.00293099
0.0029329
0.00293475
0.00293582
0.00293572
0.00293448
0.00293258
0.00341442
0.00341334
0.00341388
0.00341582
0.00341847
0.00342086
0.00342207
0.00342165
0.00341974
0.00341708
0.00378242
0.00378142
0.00378243
0.00378508
0.0037884
0.00379118
0.00379237
0.00379149
0.00378888
0.00378553
0.00405218
0.00405141
0.00405298
0.0040563
0.00406018
0.00406318
0.00406417
0.00406276
0.00405946
0.00405553
0.0042437
0.0042433
0.00424546
0.00424939
0.00425366
0.0042567
0.00425736
0.00425536
0.00425144
0.00424709
0.00437921
0.0043793
0.00438205
0.00438648
0.00439096
0.00439385
0.00439405
0.00439145
0.00438701
0.00438243
0.00448294
0.00448361
0.00448695
0.00449173
0.00449623
0.00449877
0.00449839
0.00449519
0.00449037
0.00448577
0.00457919
0.00458056
0.00458445
0.00458946
0.00459375
0.00459574
0.00459465
0.00459087
0.00458581
0.00458138
0.00468682
0.004689
0.00469344
0.00469854
0.00470243
0.00470365
0.00470173
0.00469736
0.00469218
0.00468815
0.00480965
0.00481271
0.0048177
0.00482281
0.00482615
0.00482648
0.00482365
0.00481869
0.00481347
0.00480996
0.00492796
0.00493184
0.00493733
0.00494243
0.00494525
0.00494472
0.00494103
0.00493554
0.00493031
0.0049273
0.00500333
0.00500775
0.00501358
0.00501869
0.00502119
0.00502012
0.00501587
0.00501001
0.00500475
0.00500205
0.00500323
0.00500771
0.0050136
0.00501877
0.00502128
0.00502019
0.00501587
0.00500995
0.00500463
0.00500191
0.00492769
0.00493173
0.0049374
0.00494264
0.0049455
0.00494491
0.00494105
0.00493537
0.00492998
0.00492693
0.00480925
0.00481254
0.00481779
0.0048231
0.00482652
0.00482675
0.00482369
0.00481846
0.00481302
0.00480943
0.00468635
0.00468877
0.00469352
0.00469886
0.00470285
0.00470398
0.00470181
0.00469713
0.00469169
0.00468755
0.00457869
0.00458029
0.00458449
0.00458976
0.00459418
0.0045961
0.00459478
0.00459068
0.00458534
0.00458078
0.00448243
0.00448331
0.00448693
0.00449199
0.00449663
0.00449915
0.00449857
0.00449507
0.00448997
0.0044852
0.00437872
0.00437896
0.00438198
0.00438667
0.00439133
0.00439423
0.00439426
0.0043914
0.00438669
0.00438192
0.00424323
0.00424296
0.00424534
0.00424952
0.00425397
0.00425706
0.0042576
0.00425537
0.0042512
0.00424665
0.00405175
0.00405107
0.00405283
0.00405638
0.00406043
0.0040635
0.00406442
0.00406282
0.00405929
0.00405517
0.00378205
0.0037811
0.00378227
0.00378511
0.0037886
0.00379146
0.0037926
0.00379158
0.00378878
0.00378525
0.00341413
0.00341307
0.00341372
0.00341581
0.00341861
0.00342108
0.00342228
0.00342175
0.00341969
0.00341688
0.00293032
0.00292934
0.00292959
0.00293096
0.00293299
0.0029349
0.00293598
0.00293582
0.00293447
0.00293246
0.00231739
0.00231664
0.00231665
0.0023174
0.00231865
0.00231992
0.00232073
0.00232076
0.00232002
0.00231879
0.00157534
0.00157494
0.00157488
0.00157516
0.00157572
0.00157635
0.0015768
0.0015769
0.0015766
0.00157603
0.00067989
0.000679889
0.000679908
0.000679939
0.000679971
0.000679992
0.000679995
0.000679978
0.000679947
0.000679915
0.000679894
0.000679891
0.000679908
0.000679938
0.000679969
0.00067999
0.000679993
0.000679977
0.000679948
0.000679917
0.0015754
0.001575
0.00157492
0.00157518
0.0015757
0.00157631
0.00157675
0.00157686
0.00157659
0.00157606
0.00231752
0.00231677
0.00231675
0.00231743
0.00231861
0.00231982
0.00232062
0.00232069
0.00232002
0.00231886
0.00293053
0.00292954
0.00292972
0.00293099
0.0029329
0.00293475
0.00293583
0.00293573
0.00293449
0.00293259
0.00341442
0.00341334
0.00341387
0.00341581
0.00341847
0.00342086
0.00342208
0.00342166
0.00341975
0.00341709
0.00378242
0.00378141
0.00378242
0.00378507
0.0037884
0.00379119
0.00379238
0.0037915
0.00378889
0.00378553
0.00405217
0.0040514
0.00405296
0.00405629
0.00406017
0.00406319
0.00406418
0.00406277
0.00405947
0.00405554
0.0042437
0.00424329
0.00424545
0.00424938
0.00425366
0.00425671
0.00425737
0.00425538
0.00425145
0.0042471
0.0043792
0.00437928
0.00438204
0.00438646
0.00439096
0.00439386
0.00439406
0.00439146
0.00438702
0.00438243
0.00448293
0.00448359
0.00448693
0.00449172
0.00449623
0.00449879
0.00449841
0.00449521
0.00449038
0.00448576
0.00457917
0.00458054
0.00458443
0.00458945
0.00459376
0.00459575
0.00459467
0.00459088
0.00458581
0.00458138
0.0046868
0.00468898
0.00469343
0.00469853
0.00470243
0.00470367
0.00470175
0.00469738
0.00469219
0.00468814
0.00480962
0.00481269
0.00481768
0.0048228
0.00482616
0.0048265
0.00482366
0.0048187
0.00481347
0.00480995
0.00492793
0.00493182
0.00493732
0.00494243
0.00494526
0.00494474
0.00494105
0.00493555
0.0049303
0.00492729
0.0050033
0.00500772
0.00501356
0.00501869
0.0050212
0.00502014
0.00501589
0.00501002
0.00500474
0.00500203
0.0050032
0.00500768
0.00501359
0.00501877
0.00502129
0.0050202
0.00501589
0.00500995
0.00500462
0.00500189
0.00492766
0.0049317
0.00493739
0.00494264
0.00494552
0.00494493
0.00494107
0.00493537
0.00492997
0.00492691
0.00480923
0.00481251
0.00481777
0.0048231
0.00482653
0.00482677
0.00482371
0.00481847
0.00481302
0.00480942
0.00468633
0.00468875
0.0046935
0.00469886
0.00470285
0.004704
0.00470183
0.00469715
0.00469169
0.00468754
0.00457867
0.00458027
0.00458447
0.00458975
0.00459418
0.00459612
0.0045948
0.0045907
0.00458535
0.00458078
0.00448242
0.00448329
0.00448691
0.00449198
0.00449664
0.00449916
0.00449858
0.00449509
0.00448998
0.0044852
0.0043787
0.00437894
0.00438196
0.00438666
0.00439133
0.00439424
0.00439428
0.00439141
0.0043867
0.00438192
0.00424322
0.00424294
0.00424533
0.00424951
0.00425397
0.00425707
0.00425762
0.00425539
0.00425121
0.00424666
0.00405175
0.00405106
0.00405281
0.00405637
0.00406043
0.00406351
0.00406444
0.00406284
0.0040593
0.00405517
0.00378205
0.00378109
0.00378225
0.00378509
0.0037886
0.00379146
0.00379262
0.0037916
0.00378879
0.00378525
0.00341413
0.00341307
0.00341371
0.0034158
0.00341861
0.00342108
0.00342229
0.00342176
0.0034197
0.00341689
0.00293032
0.00292934
0.00292958
0.00293096
0.00293298
0.0029349
0.00293599
0.00293583
0.00293448
0.00293246
0.00231739
0.00231664
0.00231665
0.0023174
0.00231865
0.00231992
0.00232073
0.00232077
0.00232003
0.00231879
0.00157534
0.00157494
0.00157488
0.00157516
0.00157572
0.00157635
0.00157681
0.0015769
0.00157661
0.00157603
0.00067989
0.000679889
0.000679907
0.000679939
0.000679971
0.000679992
0.000679995
0.000679978
0.000679947
0.000679915
0.000679893
0.000679891
0.000679908
0.000679938
0.000679969
0.00067999
0.000679993
0.000679977
0.000679948
0.000679917
0.0015754
0.001575
0.00157492
0.00157518
0.0015757
0.00157631
0.00157675
0.00157686
0.00157659
0.00157606
0.00231752
0.00231677
0.00231675
0.00231743
0.00231861
0.00231982
0.00232062
0.0023207
0.00232002
0.00231886
0.00293053
0.00292954
0.00292972
0.00293099
0.0029329
0.00293475
0.00293583
0.00293573
0.00293449
0.00293259
0.00341442
0.00341333
0.00341387
0.00341581
0.00341847
0.00342086
0.00342208
0.00342166
0.00341975
0.00341709
0.00378242
0.00378141
0.00378242
0.00378507
0.0037884
0.00379119
0.00379238
0.00379151
0.0037889
0.00378553
0.00405217
0.0040514
0.00405296
0.00405629
0.00406018
0.00406319
0.00406419
0.00406278
0.00405948
0.00405554
0.00424369
0.00424328
0.00424544
0.00424938
0.00425366
0.00425671
0.00425738
0.00425538
0.00425146
0.0042471
0.0043792
0.00437928
0.00438203
0.00438646
0.00439096
0.00439387
0.00439407
0.00439147
0.00438703
0.00438243
0.00448292
0.00448359
0.00448693
0.00449172
0.00449623
0.00449879
0.00449841
0.00449521
0.00449039
0.00448576
0.00457917
0.00458053
0.00458443
0.00458945
0.00459376
0.00459576
0.00459467
0.00459089
0.00458581
0.00458138
0.00468679
0.00468897
0.00469342
0.00469853
0.00470243
0.00470367
0.00470175
0.00469738
0.00469218
0.00468814
0.00480962
0.00481268
0.00481768
0.0048228
0.00482616
0.0048265
0.00482367
0.0048187
0.00481347
0.00480994
0.00492792
0.00493181
0.00493731
0.00494243
0.00494526
0.00494474
0.00494105
0.00493555
0.0049303
0.00492728
0.00500329
0.00500771
0.00501356
0.00501869
0.0050212
0.00502014
0.00501589
0.00501002
0.00500473
0.00500202
0.00500319
0.00500767
0.00501358
0.00501877
0.00502129
0.00502021
0.00501589
0.00500995
0.00500461
0.00500188
0.00492765
0.0049317
0.00493738
0.00494264
0.00494552
0.00494493
0.00494107
0.00493537
0.00492997
0.0049269
0.00480922
0.0048125
0.00481777
0.0048231
0.00482653
0.00482677
0.00482371
0.00481847
0.00481301
0.00480941
0.00468633
0.00468875
0.0046935
0.00469886
0.00470286
0.004704
0.00470183
0.00469715
0.00469169
0.00468754
0.00457867
0.00458026
0.00458447
0.00458975
0.00459419
0.00459612
0.0045948
0.0045907
0.00458535
0.00458077
0.00448241
0.00448328
0.00448691
0.00449198
0.00449664
0.00449917
0.00449859
0.00449509
0.00448998
0.00448519
0.0043787
0.00437894
0.00438196
0.00438666
0.00439133
0.00439424
0.00439429
0.00439142
0.0043867
0.00438192
0.00424322
0.00424294
0.00424532
0.00424951
0.00425397
0.00425707
0.00425762
0.00425539
0.00425121
0.00424666
0.00405174
0.00405105
0.00405281
0.00405637
0.00406043
0.00406351
0.00406444
0.00406284
0.0040593
0.00405517
0.00378205
0.00378109
0.00378225
0.00378509
0.0037886
0.00379147
0.00379262
0.0037916
0.00378879
0.00378525
0.00341413
0.00341306
0.0034137
0.0034158
0.00341861
0.00342108
0.00342229
0.00342176
0.00341971
0.00341689
0.00293032
0.00292933
0.00292958
0.00293096
0.00293298
0.0029349
0.00293599
0.00293583
0.00293448
0.00293246
0.00231739
0.00231664
0.00231665
0.0023174
0.00231865
0.00231992
0.00232073
0.00232077
0.00232003
0.0023188
0.00157534
0.00157494
0.00157487
0.00157516
0.00157572
0.00157635
0.00157681
0.00157691
0.00157661
0.00157603
0.00067989
0.000679889
0.000679907
0.000679939
0.000679971
0.000679992
0.000679995
0.000679978
0.000679947
0.000679915
0.000679893
0.000679891
0.000679908
0.000679938
0.000679969
0.00067999
0.000679993
0.000679977
0.000679948
0.000679917
0.0015754
0.001575
0.00157492
0.00157518
0.0015757
0.00157631
0.00157675
0.00157686
0.00157659
0.00157606
0.00231752
0.00231677
0.00231675
0.00231743
0.00231861
0.00231982
0.00232062
0.0023207
0.00232002
0.00231886
0.00293053
0.00292954
0.00292972
0.00293099
0.0029329
0.00293475
0.00293583
0.00293573
0.00293449
0.00293259
0.00341442
0.00341333
0.00341387
0.00341581
0.00341847
0.00342086
0.00342208
0.00342166
0.00341976
0.00341709
0.00378242
0.00378141
0.00378242
0.00378507
0.0037884
0.00379119
0.00379238
0.00379151
0.0037889
0.00378553
0.00405217
0.0040514
0.00405296
0.00405629
0.00406017
0.00406319
0.00406419
0.00406278
0.00405948
0.00405554
0.00424369
0.00424328
0.00424544
0.00424938
0.00425366
0.00425671
0.00425738
0.00425538
0.00425146
0.0042471
0.0043792
0.00437928
0.00438203
0.00438646
0.00439096
0.00439387
0.00439407
0.00439147
0.00438703
0.00438243
0.00448292
0.00448359
0.00448692
0.00449172
0.00449623
0.00449879
0.00449841
0.00449521
0.00449039
0.00448576
0.00457917
0.00458053
0.00458443
0.00458945
0.00459376
0.00459575
0.00459467
0.00459089
0.00458581
0.00458138
0.00468679
0.00468897
0.00469342
0.00469853
0.00470243
0.00470367
0.00470175
0.00469738
0.00469219
0.00468814
0.00480962
0.00481268
0.00481768
0.0048228
0.00482616
0.0048265
0.00482367
0.0048187
0.00481347
0.00480994
0.00492792
0.00493181
0.00493731
0.00494242
0.00494526
0.00494474
0.00494105
0.00493555
0.0049303
0.00492728
0.00500329
0.00500771
0.00501356
0.00501869
0.0050212
0.00502014
0.00501589
0.00501002
0.00500473
0.00500202
0.00500319
0.00500767
0.00501358
0.00501877
0.00502129
0.00502021
0.00501589
0.00500995
0.00500461
0.00500188
0.00492765
0.00493169
0.00493738
0.00494264
0.00494551
0.00494493
0.00494107
0.00493537
0.00492997
0.0049269
0.00480922
0.0048125
0.00481777
0.0048231
0.00482653
0.00482677
0.00482371
0.00481847
0.00481301
0.00480941
0.00468633
0.00468875
0.0046935
0.00469885
0.00470285
0.004704
0.00470183
0.00469715
0.00469169
0.00468754
0.00457867
0.00458026
0.00458447
0.00458975
0.00459418
0.00459612
0.0045948
0.0045907
0.00458535
0.00458077
0.00448242
0.00448328
0.00448691
0.00449198
0.00449664
0.00449917
0.00449859
0.00449509
0.00448998
0.0044852
0.0043787
0.00437894
0.00438196
0.00438666
0.00439133
0.00439424
0.00439429
0.00439142
0.0043867
0.00438192
0.00424322
0.00424294
0.00424532
0.00424951
0.00425397
0.00425707
0.00425762
0.00425539
0.00425121
0.00424666
0.00405174
0.00405105
0.00405281
0.00405636
0.00406043
0.00406351
0.00406444
0.00406284
0.00405931
0.00405517
0.00378205
0.00378109
0.00378225
0.00378509
0.0037886
0.00379147
0.00379262
0.0037916
0.00378879
0.00378525
0.00341413
0.00341307
0.0034137
0.0034158
0.00341861
0.00342108
0.00342229
0.00342176
0.00341971
0.00341689
0.00293032
0.00292933
0.00292958
0.00293096
0.00293298
0.0029349
0.00293599
0.00293583
0.00293448
0.00293246
0.00231739
0.00231664
0.00231665
0.0023174
0.00231865
0.00231992
0.00232073
0.00232077
0.00232003
0.0023188
0.00157534
0.00157494
0.00157487
0.00157516
0.00157572
0.00157635
0.00157681
0.00157691
0.00157661
0.00157603
0.00067989
0.000679889
0.000679907
0.000679939
0.000679971
0.000679992
0.000679995
0.000679978
0.000679947
0.000679915
0.000679894
0.000679891
0.000679908
0.000679938
0.000679969
0.00067999
0.000679993
0.000679977
0.000679948
0.000679917
0.0015754
0.001575
0.00157492
0.00157518
0.0015757
0.00157631
0.00157675
0.00157686
0.00157659
0.00157606
0.00231752
0.00231678
0.00231675
0.00231743
0.00231861
0.00231982
0.00232062
0.00232069
0.00232002
0.00231886
0.00293053
0.00292954
0.00292972
0.00293099
0.0029329
0.00293475
0.00293583
0.00293573
0.00293449
0.00293259
0.00341442
0.00341334
0.00341387
0.00341581
0.00341847
0.00342086
0.00342208
0.00342166
0.00341975
0.00341709
0.00378242
0.00378141
0.00378242
0.00378507
0.0037884
0.00379118
0.00379237
0.0037915
0.00378889
0.00378553
0.00405218
0.0040514
0.00405296
0.00405629
0.00406017
0.00406318
0.00406418
0.00406277
0.00405948
0.00405554
0.0042437
0.00424329
0.00424545
0.00424938
0.00425366
0.00425671
0.00425737
0.00425538
0.00425146
0.0042471
0.00437921
0.00437928
0.00438204
0.00438646
0.00439096
0.00439386
0.00439406
0.00439146
0.00438703
0.00438244
0.00448293
0.00448359
0.00448693
0.00449172
0.00449623
0.00449878
0.00449841
0.00449521
0.00449039
0.00448577
0.00457917
0.00458054
0.00458443
0.00458945
0.00459375
0.00459575
0.00459467
0.00459089
0.00458581
0.00458138
0.0046868
0.00468898
0.00469342
0.00469853
0.00470243
0.00470367
0.00470175
0.00469738
0.00469219
0.00468815
0.00480962
0.00481268
0.00481768
0.0048228
0.00482616
0.0048265
0.00482366
0.0048187
0.00481347
0.00480995
0.00492793
0.00493182
0.00493731
0.00494242
0.00494526
0.00494474
0.00494105
0.00493555
0.00493031
0.00492729
0.0050033
0.00500772
0.00501356
0.00501869
0.0050212
0.00502014
0.00501589
0.00501002
0.00500474
0.00500203
0.0050032
0.00500768
0.00501359
0.00501877
0.00502129
0.0050202
0.00501589
0.00500996
0.00500462
0.00500189
0.00492766
0.0049317
0.00493738
0.00494264
0.00494551
0.00494492
0.00494107
0.00493538
0.00492998
0.00492691
0.00480923
0.00481251
0.00481777
0.0048231
0.00482653
0.00482677
0.00482371
0.00481847
0.00481302
0.00480942
0.00468633
0.00468875
0.0046935
0.00469885
0.00470285
0.00470399
0.00470183
0.00469715
0.0046917
0.00468754
0.00457867
0.00458027
0.00458447
0.00458975
0.00459418
0.00459611
0.0045948
0.0045907
0.00458535
0.00458078
0.00448242
0.00448329
0.00448691
0.00449197
0.00449663
0.00449916
0.00449858
0.00449509
0.00448998
0.0044852
0.00437871
0.00437895
0.00438196
0.00438666
0.00439132
0.00439424
0.00439428
0.00439141
0.0043867
0.00438193
0.00424323
0.00424294
0.00424533
0.00424951
0.00425397
0.00425707
0.00425762
0.00425539
0.00425121
0.00424666
0.00405175
0.00405106
0.00405281
0.00405637
0.00406043
0.00406351
0.00406443
0.00406284
0.0040593
0.00405517
0.00378205
0.00378109
0.00378225
0.00378509
0.00378859
0.00379146
0.00379261
0.0037916
0.00378879
0.00378525
0.00341413
0.00341307
0.00341371
0.0034158
0.00341861
0.00342108
0.00342229
0.00342176
0.0034197
0.00341689
0.00293032
0.00292934
0.00292958
0.00293096
0.00293298
0.0029349
0.00293599
0.00293583
0.00293448
0.00293246
0.00231739
0.00231664
0.00231665
0.0023174
0.00231865
0.00231992
0.00232073
0.00232077
0.00232003
0.0023188
0.00157534
0.00157494
0.00157488
0.00157516
0.00157572
0.00157635
0.00157681
0.0015769
0.00157661
0.00157603
0.00067989
0.000679889
0.000679907
0.000679939
0.000679971
0.000679992
0.000679995
0.000679978
0.000679947
0.000679915
0.000679894
0.000679891
0.000679908
0.000679938
0.000679969
0.00067999
0.000679993
0.000679977
0.000679948
0.000679917
0.0015754
0.001575
0.00157493
0.00157519
0.00157571
0.00157631
0.00157675
0.00157686
0.00157659
0.00157605
0.00231752
0.00231678
0.00231675
0.00231744
0.00231861
0.00231982
0.00232062
0.00232069
0.00232001
0.00231886
0.00293053
0.00292955
0.00292973
0.00293099
0.0029329
0.00293474
0.00293582
0.00293572
0.00293448
0.00293258
0.00341442
0.00341334
0.00341388
0.00341582
0.00341847
0.00342086
0.00342207
0.00342165
0.00341974
0.00341709
0.00378242
0.00378142
0.00378243
0.00378508
0.0037884
0.00379118
0.00379236
0.00379149
0.00378888
0.00378553
0.00405218
0.00405141
0.00405298
0.0040563
0.00406017
0.00406318
0.00406417
0.00406276
0.00405946
0.00405553
0.00424371
0.0042433
0.00424546
0.00424939
0.00425366
0.0042567
0.00425736
0.00425536
0.00425144
0.0042471
0.00437922
0.0043793
0.00438205
0.00438647
0.00439096
0.00439385
0.00439405
0.00439145
0.00438702
0.00438244
0.00448294
0.00448361
0.00448694
0.00449173
0.00449623
0.00449877
0.00449839
0.00449519
0.00449038
0.00448577
0.00457919
0.00458056
0.00458445
0.00458945
0.00459375
0.00459574
0.00459465
0.00459087
0.00458581
0.00458139
0.00468682
0.004689
0.00469344
0.00469854
0.00470242
0.00470365
0.00470173
0.00469737
0.00469219
0.00468816
0.00480965
0.00481271
0.0048177
0.0048228
0.00482615
0.00482648
0.00482365
0.00481869
0.00481348
0.00480997
0.00492796
0.00493184
0.00493733
0.00494242
0.00494525
0.00494472
0.00494104
0.00493555
0.00493031
0.00492731
0.00500333
0.00500774
0.00501357
0.00501869
0.00502118
0.00502012
0.00501587
0.00501002
0.00500475
0.00500205
0.00500323
0.0050077
0.0050136
0.00501876
0.00502128
0.00502019
0.00501588
0.00500995
0.00500463
0.00500191
0.00492769
0.00493172
0.0049374
0.00494264
0.0049455
0.00494491
0.00494105
0.00493537
0.00492998
0.00492693
0.00480925
0.00481253
0.00481779
0.0048231
0.00482652
0.00482675
0.00482369
0.00481846
0.00481302
0.00480943
0.00468636
0.00468877
0.00469352
0.00469886
0.00470284
0.00470398
0.00470181
0.00469713
0.00469169
0.00468756
0.00457869
0.00458029
0.00458449
0.00458976
0.00459418
0.0045961
0.00459478
0.00459068
0.00458534
0.00458078
0.00448244
0.00448331
0.00448693
0.00449198
0.00449663
0.00449915
0.00449857
0.00449507
0.00448997
0.0044852
0.00437872
0.00437896
0.00438198
0.00438667
0.00439132
0.00439422
0.00439426
0.0043914
0.00438669
0.00438193
0.00424324
0.00424296
0.00424534
0.00424952
0.00425397
0.00425706
0.0042576
0.00425537
0.0042512
0.00424666
0.00405176
0.00405107
0.00405283
0.00405638
0.00406043
0.0040635
0.00406442
0.00406282
0.00405929
0.00405517
0.00378206
0.00378111
0.00378227
0.0037851
0.0037886
0.00379146
0.0037926
0.00379158
0.00378878
0.00378525
0.00341413
0.00341308
0.00341372
0.00341581
0.00341861
0.00342108
0.00342228
0.00342175
0.00341969
0.00341689
0.00293032
0.00292934
0.00292959
0.00293096
0.00293299
0.0029349
0.00293598
0.00293582
0.00293447
0.00293246
0.00231739
0.00231665
0.00231665
0.0023174
0.00231865
0.00231992
0.00232072
0.00232076
0.00232002
0.00231879
0.00157534
0.00157494
0.00157488
0.00157516
0.00157572
0.00157635
0.0015768
0.0015769
0.0015766
0.00157603
0.00067989
0.000679889
0.000679908
0.000679939
0.000679971
0.000679992
0.000679995
0.000679978
0.000679947
0.000679915
0.000679894
0.000679891
0.000679909
0.000679938
0.000679969
0.00067999
0.000679993
0.000679977
0.000679948
0.000679917
0.0015754
0.00157501
0.00157493
0.00157519
0.00157571
0.00157631
0.00157675
0.00157686
0.00157659
0.00157605
0.00231751
0.00231678
0.00231676
0.00231745
0.00231862
0.00231983
0.00232062
0.00232068
0.00232
0.00231884
0.00293053
0.00292956
0.00292974
0.00293102
0.00293292
0.00293475
0.00293582
0.0029357
0.00293446
0.00293257
0.00341442
0.00341336
0.00341391
0.00341585
0.0034185
0.00342086
0.00342206
0.00342162
0.00341971
0.00341706
0.00378242
0.00378144
0.00378247
0.00378512
0.00378843
0.00379119
0.00379235
0.00379146
0.00378885
0.0037855
0.00405219
0.00405144
0.00405302
0.00405634
0.0040602
0.00406318
0.00406415
0.00406272
0.00405942
0.00405551
0.00424372
0.00424334
0.00424551
0.00424943
0.00425368
0.0042567
0.00425733
0.00425531
0.0042514
0.00424707
0.00437923
0.00437934
0.00438211
0.00438652
0.00439098
0.00439384
0.00439401
0.0043914
0.00438697
0.00438242
0.00448297
0.00448366
0.004487
0.00449178
0.00449624
0.00449875
0.00449834
0.00449514
0.00449034
0.00448576
0.00457922
0.00458061
0.00458451
0.0045895
0.00459376
0.00459571
0.0045946
0.00459082
0.00458577
0.00458138
0.00468686
0.00468906
0.0046935
0.00469857
0.00470242
0.00470362
0.00470168
0.00469731
0.00469216
0.00468816
0.0048097
0.00481277
0.00481775
0.00482283
0.00482614
0.00482644
0.00482359
0.00481865
0.00481346
0.00480998
0.00492802
0.00493191
0.00493738
0.00494244
0.00494522
0.00494467
0.00494097
0.0049355
0.0049303
0.00492734
0.0050034
0.00500782
0.00501363
0.0050187
0.00502116
0.00502006
0.00501581
0.00500997
0.00500474
0.00500209
0.0050033
0.00500778
0.00501365
0.00501878
0.00502125
0.00502013
0.00501581
0.00500991
0.00500462
0.00500195
0.00492775
0.0049318
0.00493745
0.00494265
0.00494548
0.00494485
0.00494099
0.00493532
0.00492997
0.00492696
0.00480931
0.0048126
0.00481784
0.00482313
0.0048265
0.0048267
0.00482363
0.00481841
0.004813
0.00480945
0.0046864
0.00468884
0.00469358
0.00469889
0.00470284
0.00470394
0.00470175
0.00469708
0.00469167
0.00468756
0.00457873
0.00458035
0.00458455
0.0045898
0.00459418
0.00459607
0.00459472
0.00459063
0.00458531
0.00458078
0.00448247
0.00448336
0.00448699
0.00449203
0.00449665
0.00449913
0.00449852
0.00449502
0.00448993
0.00448519
0.00437874
0.00437901
0.00438204
0.00438671
0.00439134
0.00439421
0.00439422
0.00439134
0.00438665
0.00438191
0.00424325
0.004243
0.0042454
0.00424957
0.004254
0.00425705
0.00425756
0.00425532
0.00425115
0.00424664
0.00405176
0.0040511
0.00405287
0.00405642
0.00406046
0.0040635
0.00406439
0.00406278
0.00405925
0.00405515
0.00378206
0.00378113
0.0037823
0.00378514
0.00378862
0.00379146
0.00379258
0.00379155
0.00378874
0.00378522
0.00341413
0.00341309
0.00341375
0.00341584
0.00341863
0.00342108
0.00342226
0.00342172
0.00341966
0.00341686
0.00293032
0.00292935
0.00292961
0.00293099