/*--------------------------------*- C++ -*----------------------------------*\
| =========                 |                                                 |
| \\      /  F ield         | OpenFOAM: The Open Source CFD Toolbox           |
|  \\    /   O peration     | Version:  2.3.0                                 |
|   \\  /    A nd           | Web:      www.OpenFOAM.org                      |
|    \\/     M anipulation  |                                                 |
\*---------------------------------------------------------------------------*/
FoamFile
{
    version     2.0;
    format      ascii;
    class       volScalarField;
    location    "400";
    object      p;
}
// * * * * * * * * * * * * * * * * * * * * * * * * * * * * * * * * * * * * * //

dimensions      [0 2 -2 0 0 0 0];

internalField   nonuniform List<scalar> 
3000
(
-3.34609e-06
-3.1259e-08
3.7548e-06
6.30217e-06
6.62861e-06
4.74899e-06
1.45059e-06
-2.04721e-06
-4.4738e-06
-4.96173e-06
-3.37565e-06
-5.60043e-08
3.74317e-06
6.309e-06
6.65015e-06
4.77763e-06
1.47392e-06
-2.03681e-06
-4.47965e-06
-4.98179e-06
-3.42433e-06
-8.4173e-08
3.74227e-06
6.3369e-06
6.69698e-06
4.82593e-06
1.50415e-06
-2.03562e-06
-4.50753e-06
-5.0304e-06
-3.47509e-06
-1.02981e-07
3.75845e-06
6.3828e-06
6.75542e-06
4.8753e-06
1.52563e-06
-2.0506e-06
-4.55302e-06
-5.09183e-06
-3.52201e-06
-1.10203e-07
3.78864e-06
6.43962e-06
6.82064e-06
4.92075e-06
1.53632e-06
-2.0791e-06
-4.60985e-06
-5.15845e-06
-3.56155e-06
-1.06481e-07
3.82878e-06
6.50172e-06
6.88225e-06
4.95926e-06
1.53659e-06
-2.11755e-06
-4.67255e-06
-5.22433e-06
-3.59207e-06
-9.34205e-08
3.87515e-06
6.56475e-06
6.93932e-06
4.98931e-06
1.52766e-06
-2.1625e-06
-4.73667e-06
-5.28551e-06
-3.61313e-06
-7.30619e-08
3.92435e-06
6.62517e-06
6.98937e-06
5.01039e-06
1.51128e-06
-2.21066e-06
-4.79853e-06
-5.33924e-06
-3.62507e-06
-4.76573e-08
3.97325e-06
6.68011e-06
7.03072e-06
5.02276e-06
1.48945e-06
-2.25893e-06
-4.85508e-06
-5.38374e-06
-3.62864e-06
-1.94363e-08
4.01914e-06
6.72733e-06
7.06239e-06
5.02707e-06
1.46426e-06
-2.30454e-06
-4.90395e-06
-5.41792e-06
-3.62488e-06
9.55708e-09
4.05982e-06
6.7652e-06
7.08394e-06
5.02424e-06
1.43768e-06
-2.34523e-06
-4.94343e-06
-5.44132e-06
-3.61524e-06
3.74267e-08
4.09369e-06
6.79297e-06
7.09573e-06
5.01565e-06
1.41156e-06
-2.37932e-06
-4.97268e-06
-5.45433e-06
-3.6022e-06
6.21362e-08
4.1198e-06
6.81111e-06
7.09947e-06
5.00361e-06
1.388e-06
-2.40576e-06
-4.99207e-06
-5.45877e-06
-3.58952e-06
8.11986e-08
4.13766e-06
6.82131e-06
7.09842e-06
4.99174e-06
1.3696e-06
-2.42392e-06
-5.00321e-06
-5.45805e-06
-3.58163e-06
9.18801e-08
4.14699e-06
6.82585e-06
7.09658e-06
4.98428e-06
1.35923e-06
-2.43339e-06
-5.00826e-06
-5.45638e-06
-3.58174e-06
9.21693e-08
4.14751e-06
6.82633e-06
7.09685e-06
4.98432e-06
1.35901e-06
-2.43381e-06
-5.00875e-06
-5.45678e-06
-3.59004e-06
8.18312e-08
4.13904e-06
6.82267e-06
7.09929e-06
4.99203e-06
1.36918e-06
-2.42497e-06
-5.00458e-06
-5.45932e-06
-3.60364e-06
6.25098e-08
4.12149e-06
6.81311e-06
7.10108e-06
5.00463e-06
1.38802e-06
-2.40687e-06
-4.99406e-06
-5.46108e-06
-3.61818e-06
3.67995e-08
4.09502e-06
6.79523e-06
7.09817e-06
5.01792e-06
1.41278e-06
-2.37979e-06
-4.97487e-06
-5.45782e-06
-3.62973e-06
7.25395e-09
4.06009e-06
6.76726e-06
7.08716e-06
5.02815e-06
1.44077e-06
-2.34433e-06
-4.94534e-06
-5.44594e-06
-3.6356e-06
-2.39247e-08
4.01771e-06
6.72867e-06
7.06616e-06
5.03277e-06
1.46972e-06
-2.30163e-06
-4.90501e-06
-5.42344e-06
-3.63405e-06
-5.46619e-08
3.96955e-06
6.68014e-06
7.03463e-06
5.03017e-06
1.49756e-06
-2.25345e-06
-4.85466e-06
-5.3897e-06
-3.62388e-06
-8.27486e-08
3.91791e-06
6.62327e-06
6.99288e-06
5.01925e-06
1.52215e-06
-2.20217e-06
-4.796e-06
-5.34506e-06
-3.60415e-06
-1.05793e-07
3.86562e-06
6.56035e-06
6.94183e-06
4.99921e-06
1.54123e-06
-2.15068e-06
-4.73146e-06
-5.2905e-06
-3.57439e-06
-1.21369e-07
3.81597e-06
6.49433e-06
6.88307e-06
4.96969e-06
1.55262e-06
-2.10225e-06
-4.66417e-06
-5.22778e-06
-3.53492e-06
-1.27247e-07
3.77256e-06
6.4289e-06
6.81915e-06
4.93105e-06
1.55439e-06
-2.06041e-06
-4.59801e-06
-5.15972e-06
-3.48733e-06
-1.2161e-07
3.73938e-06
6.36865e-06
6.75348e-06
4.8848e-06
1.54512e-06
-2.02887e-06
-4.53769e-06
-5.09028e-06
-3.4352e-06
-1.0359e-07
3.72084e-06
6.31955e-06
6.6921e-06
4.83405e-06
1.52426e-06
-2.01153e-06
-4.489e-06
-5.02589e-06
-3.38477e-06
-7.53012e-08
3.72037e-06
6.28917e-06
6.64253e-06
4.78402e-06
1.49377e-06
-2.01137e-06
-4.45869e-06
-4.97454e-06
-3.35386e-06
-4.99017e-08
3.73175e-06
6.28122e-06
6.61959e-06
4.7542e-06
1.46981e-06
-2.02156e-06
-4.45193e-06
-4.95307e-06
-3.34564e-06
-3.07364e-08
3.75509e-06
6.3028e-06
6.63094e-06
4.74979e-06
1.4509e-06
-2.0475e-06
-4.47412e-06
-4.96192e-06
-3.3754e-06
-5.58742e-08
3.74289e-06
6.30911e-06
6.65227e-06
4.77862e-06
1.4746e-06
-2.03657e-06
-4.47952e-06
-4.98176e-06
-3.42463e-06
-8.49258e-08
3.74104e-06
6.33632e-06
6.69894e-06
4.82743e-06
1.50573e-06
-2.0344e-06
-4.5067e-06
-5.03017e-06
-3.4762e-06
-1.04918e-07
3.75617e-06
6.38168e-06
6.75764e-06
4.87762e-06
1.52838e-06
-2.04831e-06
-4.55164e-06
-5.09172e-06
-3.52417e-06
-1.13451e-07
3.78537e-06
6.43817e-06
6.82136e-06
4.92415e-06
1.54036e-06
-2.07579e-06
-4.60812e-06
-5.15865e-06
-3.56494e-06
-1.11023e-07
3.82467e-06
6.50017e-06
6.88376e-06
4.96386e-06
1.54191e-06
-2.11334e-06
-4.67067e-06
-5.22515e-06
-3.59676e-06
-9.91582e-08
3.87039e-06
6.56328e-06
6.94173e-06
4.99511e-06
1.53418e-06
-2.15758e-06
-4.73485e-06
-5.28714e-06
-3.61909e-06
-7.98468e-08
3.91912e-06
6.62395e-06
6.9927e-06
5.01736e-06
1.51886e-06
-2.2052e-06
-4.79692e-06
-5.34183e-06
-3.6322e-06
-5.53083e-08
3.96776e-06
6.67928e-06
7.03499e-06
5.03082e-06
1.49792e-06
-2.25313e-06
-4.85383e-06
-5.38732e-06
-3.63679e-06
-2.77507e-08
4.01355e-06
6.72696e-06
7.06756e-06
5.03607e-06
1.47342e-06
-2.29859e-06
-4.90315e-06
-5.42246e-06
-3.63385e-06
7.91221e-10
4.05429e-06
6.76535e-06
7.08993e-06
5.03402e-06
1.44731e-06
-2.33929e-06
-4.94313e-06
-5.44672e-06
-3.62483e-06
2.84125e-08
4.08834e-06
6.79365e-06
7.10243e-06
5.026e-06
1.42145e-06
-2.37353e-06
-4.97289e-06
-5.46047e-06
-3.6122e-06
5.30405e-08
4.11471e-06
6.81228e-06
7.10673e-06
5.01434e-06
1.39799e-06
-2.4002e-06
-4.99276e-06
-5.46549e-06
-3.59977e-06
7.21186e-08
4.13283e-06
6.82287e-06
7.10608e-06
5.00269e-06
1.37957e-06
-2.41861e-06
-5.00428e-06
-5.46518e-06
-3.592e-06
8.28277e-08
4.14233e-06
6.82762e-06
7.10447e-06
4.99533e-06
1.36917e-06
-2.42824e-06
-5.00955e-06
-5.46373e-06
-3.59213e-06
8.30948e-08
4.14285e-06
6.82812e-06
7.10478e-06
4.99537e-06
1.36896e-06
-2.42866e-06
-5.01005e-06
-5.46416e-06
-3.60036e-06
7.26822e-08
4.13421e-06
6.82426e-06
7.10706e-06
5.00301e-06
1.37918e-06
-2.41966e-06
-5.00567e-06
-5.46652e-06
-3.61375e-06
5.32915e-08
4.11639e-06
6.81431e-06
7.10851e-06
5.01541e-06
1.39805e-06
-2.4013e-06
-4.99476e-06
-5.46789e-06
-3.62791e-06
2.76021e-08
4.08963e-06
6.79593e-06
7.10509e-06
5.02833e-06
1.42274e-06
-2.37395e-06
-4.97507e-06
-5.46406e-06
-3.63886e-06
-1.75893e-09
4.05447e-06
6.7674e-06
7.0934e-06
5.03799e-06
1.4505e-06
-2.3383e-06
-4.94498e-06
-5.45144e-06
-3.64391e-06
-3.25464e-08
4.01197e-06
6.72824e-06
7.07158e-06
5.04183e-06
1.479e-06
-2.29553e-06
-4.9041e-06
-5.42805e-06
-3.64133e-06
-6.26706e-08
3.96385e-06
6.67919e-06
7.03915e-06
5.03825e-06
1.50617e-06
-2.24744e-06
-4.85324e-06
-5.39332e-06
-3.62996e-06
-8.99264e-08
3.91243e-06
6.62189e-06
6.99646e-06
5.0262e-06
1.52987e-06
-2.19645e-06
-4.79416e-06
-5.34763e-06
-3.6089e-06
-1.1194e-07
3.86056e-06
6.55866e-06
6.94446e-06
5.00492e-06
1.54788e-06
-2.14545e-06
-4.72933e-06
-5.29203e-06
-3.57777e-06
-1.26316e-07
3.81153e-06
6.4925e-06
6.88486e-06
4.9741e-06
1.55802e-06
-2.09772e-06
-4.66192e-06
-5.22837e-06
-3.53696e-06
-1.30881e-07
3.76895e-06
6.42712e-06
6.82026e-06
4.93422e-06
1.55846e-06
-2.05677e-06
-4.59586e-06
-5.15949e-06
-3.48816e-06
-1.239e-07
3.73675e-06
6.36715e-06
6.75312e-06
4.88684e-06
1.54784e-06
-2.02625e-06
-4.53585e-06
-5.08956e-06
-3.43508e-06
-1.04646e-07
3.71928e-06
6.31856e-06
6.69152e-06
4.83518e-06
1.52574e-06
-2.01001e-06
-4.48771e-06
-5.02487e-06
-3.38399e-06
-7.54167e-08
3.71981e-06
6.28887e-06
6.64205e-06
4.78453e-06
1.4943e-06
-2.01088e-06
-4.4581e-06
-4.97353e-06
-3.35288e-06
-4.95884e-08
3.73178e-06
6.28146e-06
6.6193e-06
4.75448e-06
1.46992e-06
-2.02163e-06
-4.45179e-06
-4.95226e-06
-3.34665e-06
-2.98194e-08
3.75516e-06
6.30298e-06
6.63223e-06
4.75138e-06
1.45275e-06
-2.04621e-06
-4.4737e-06
-4.96245e-06
-3.37654e-06
-5.51181e-08
3.74278e-06
6.30915e-06
6.65356e-06
4.78035e-06
1.47663e-06
-2.03509e-06
-4.47898e-06
-4.98225e-06
-3.42606e-06
-8.44799e-08
3.74065e-06
6.33621e-06
6.70034e-06
4.82945e-06
1.5081e-06
-2.03262e-06
-4.50602e-06
-5.03074e-06
-3.47802e-06
-1.04839e-07
3.75549e-06
6.38151e-06
6.75926e-06
4.88003e-06
1.53116e-06
-2.04622e-06
-4.55089e-06
-5.0925e-06
-3.52647e-06
-1.1374e-07
3.78447e-06
6.43804e-06
6.82314e-06
4.92702e-06
1.54357e-06
-2.07346e-06
-4.60738e-06
-5.15977e-06
-3.56775e-06
-1.1165e-07
3.82361e-06
6.50013e-06
6.8859e-06
4.96719e-06
1.54552e-06
-2.11082e-06
-4.67003e-06
-5.22668e-06
-3.60005e-06
-1.00078e-07
3.86922e-06
6.56341e-06
6.94424e-06
4.99892e-06
1.53815e-06
-2.15493e-06
-4.73436e-06
-5.2891e-06
-3.62284e-06
-8.10054e-08
3.91791e-06
6.62429e-06
6.99559e-06
5.02162e-06
1.52312e-06
-2.20249e-06
-4.79663e-06
-5.3442e-06
-3.63634e-06
-5.66504e-08
3.96656e-06
6.67985e-06
7.03825e-06
5.03546e-06
1.50241e-06
-2.25041e-06
-4.85377e-06
-5.39008e-06
-3.64126e-06
-2.92271e-08
4.01241e-06
6.72778e-06
7.07116e-06
5.04104e-06
1.47808e-06
-2.29592e-06
-4.90333e-06
-5.42557e-06
-3.63857e-06
-7.80145e-10
4.05322e-06
6.7664e-06
7.09382e-06
5.03923e-06
1.45206e-06
-2.3367e-06
-4.94355e-06
-5.45014e-06
-3.62973e-06
2.67754e-08
4.08737e-06
6.79492e-06
7.10655e-06
5.03137e-06
1.42624e-06
-2.37106e-06
-4.97352e-06
-5.46413e-06
-3.61721e-06
5.13535e-08
4.11384e-06
6.81373e-06
7.11103e-06
5.01981e-06
1.40275e-06
-2.39785e-06
-4.99358e-06
-5.46933e-06
-3.60483e-06
7.03769e-08
4.13204e-06
6.82445e-06
7.11049e-06
5.00821e-06
1.3843e-06
-2.41637e-06
-5.00523e-06
-5.46914e-06
-3.59708e-06
8.10017e-08
4.14157e-06
6.82928e-06
7.10894e-06
5.00086e-06
1.37386e-06
-2.42606e-06
-5.01058e-06
-5.46775e-06
-3.59722e-06
8.11373e-08
4.14205e-06
6.82978e-06
7.10926e-06
5.00091e-06
1.37365e-06
-2.42649e-06
-5.01109e-06
-5.46817e-06
-3.60545e-06
7.05503e-08
4.1333e-06
6.82585e-06
7.1115e-06
5.00854e-06
1.3839e-06
-2.41742e-06
-5.00664e-06
-5.47048e-06
-3.61881e-06
5.09682e-08
4.11533e-06
6.81576e-06
7.11285e-06
5.0209e-06
1.40282e-06
-2.39895e-06
-4.99559e-06
-5.47174e-06
-3.63288e-06
2.51052e-08
4.08838e-06
6.79719e-06
7.10927e-06
5.03373e-06
1.42754e-06
-2.37147e-06
-4.97571e-06
-5.46773e-06
-3.64368e-06
-4.38166e-09
4.05304e-06
6.76843e-06
7.09735e-06
5.04323e-06
1.45528e-06
-2.33569e-06
-4.94539e-06
-5.45485e-06
-3.64848e-06
-3.52285e-08
4.0104e-06
6.729e-06
7.07525e-06
5.04682e-06
1.4837e-06
-2.29281e-06
-4.90425e-06
-5.43114e-06
-3.64558e-06
-6.53361e-08
3.96216e-06
6.67967e-06
7.04247e-06
5.04292e-06
1.51072e-06
-2.24466e-06
-4.85313e-06
-5.39603e-06
-3.6338e-06
-9.24948e-08
3.91066e-06
6.62208e-06
6.99939e-06
5.03047e-06
1.53419e-06
-2.19365e-06
-4.7938e-06
-5.34992e-06
-3.61229e-06
-1.14329e-07
3.85878e-06
6.55859e-06
6.94699e-06
5.00874e-06
1.55191e-06
-2.14269e-06
-4.72874e-06
-5.29389e-06
-3.58064e-06
-1.28449e-07
3.80981e-06
6.4922e-06
6.88703e-06
4.97742e-06
1.5617e-06
-2.09507e-06
-4.66116e-06
-5.2298e-06
-3.53932e-06
-1.32688e-07
3.76735e-06
6.42668e-06
6.82214e-06
4.93706e-06
1.56172e-06
-2.05429e-06
-4.59497e-06
-5.16052e-06
-3.49004e-06
-1.25334e-07
3.73537e-06
6.36664e-06
6.75331e-06
4.88925e-06
1.55066e-06
-2.02402e-06
-4.53493e-06
-5.09028e-06
-3.43654e-06
-1.05699e-07
3.71816e-06
6.31808e-06
6.69158e-06
4.8372e-06
1.52813e-06
-2.00808e-06
-4.48682e-06
-5.02537e-06
-3.38513e-06
-7.61397e-08
3.71897e-06
6.28852e-06
6.6421e-06
4.78625e-06
1.49631e-06
-2.00925e-06
-4.45735e-06
-4.97393e-06
-3.35388e-06
-5.01334e-08
3.73114e-06
6.28124e-06
6.61934e-06
4.75606e-06
1.47174e-06
-2.0202e-06
-4.45116e-06
-4.95268e-06
-3.3499e-06
-3.19337e-08
3.75312e-06
6.30253e-06
6.63434e-06
4.75546e-06
1.45642e-06
-2.04396e-06
-4.47359e-06
-4.96442e-06
-3.37985e-06
-5.72524e-08
3.74069e-06
6.30867e-06
6.65569e-06
4.78448e-06
1.48036e-06
-2.03278e-06
-4.47882e-06
-4.98423e-06
-3.4295e-06
-8.66297e-08
3.73853e-06
6.33572e-06
6.70254e-06
4.83371e-06
1.51196e-06
-2.03022e-06
-4.50585e-06
-5.03278e-06
-3.48162e-06
-1.06941e-07
3.75338e-06
6.38106e-06
6.76159e-06
4.88443e-06
1.53515e-06
-2.04376e-06
-4.55075e-06
-5.09468e-06
-3.53026e-06
-1.15697e-07
3.7824e-06
6.43765e-06
6.8256e-06
4.93157e-06
1.54768e-06
-2.07095e-06
-4.60729e-06
-5.16211e-06
-3.57171e-06
-1.13348e-07
3.82163e-06
6.49985e-06
6.88852e-06
4.9719e-06
1.54974e-06
-2.10829e-06
-4.67002e-06
-5.22922e-06
-3.60419e-06
-1.0138e-07
3.86737e-06
6.56324e-06
6.94703e-06
5.00376e-06
1.54247e-06
-2.1524e-06
-4.73445e-06
-5.29183e-06
-3.62711e-06
-8.17555e-08
3.91625e-06
6.62425e-06
6.99855e-06
5.02657e-06
1.52752e-06
-2.19999e-06
-4.79684e-06
-5.3471e-06
-3.64074e-06
-5.66973e-08
3.96512e-06
6.67993e-06
7.04136e-06
5.04051e-06
1.50686e-06
-2.24795e-06
-4.85409e-06
-5.39314e-06
-3.64577e-06
-2.86734e-08
4.01123e-06
6.72798e-06
7.0744e-06
5.04617e-06
1.48256e-06
-2.2935e-06
-4.90377e-06
-5.42877e-06
-3.64316e-06
-4.7686e-13
4.05221e-06
6.76672e-06
7.09716e-06
5.04442e-06
1.45655e-06
-2.33435e-06
-4.94409e-06
-5.45345e-06
-3.63437e-06
2.73701e-08
4.08633e-06
6.79534e-06
7.10998e-06
5.0366e-06
1.43072e-06
-2.36876e-06
-4.97415e-06
-5.46754e-06
-3.62188e-06
5.13499e-08
4.11265e-06
6.81422e-06
7.11451e-06
5.02506e-06
1.40721e-06
-2.39561e-06
-4.99428e-06
-5.47279e-06
-3.60952e-06
6.96073e-08
4.1307e-06
6.825e-06
7.11401e-06
5.01346e-06
1.38874e-06
-2.41417e-06
-5.00598e-06
-5.47263e-06
-3.60178e-06
7.9553e-08
4.1401e-06
6.82987e-06
7.11248e-06
5.00611e-06
1.37829e-06
-2.42389e-06
-5.01135e-06
-5.47125e-06
-3.60194e-06
7.91007e-08
4.14045e-06
6.83038e-06
7.1128e-06
5.00616e-06
1.37807e-06
-2.42431e-06
-5.01186e-06
-5.47168e-06
-3.61018e-06
6.80028e-08
4.13156e-06
6.82643e-06
7.11504e-06
5.01379e-06
1.38834e-06
-2.41522e-06
-5.00739e-06
-5.47396e-06
-3.62355e-06
4.79805e-08
4.11344e-06
6.81631e-06
7.11636e-06
5.02614e-06
1.40727e-06
-2.39671e-06
-4.99629e-06
-5.47519e-06
-3.63762e-06
2.17477e-08
4.08634e-06
6.79768e-06
7.11272e-06
5.03895e-06
1.43201e-06
-2.36917e-06
-4.97634e-06
-5.4711e-06
-3.64838e-06
-8.04034e-09
4.05086e-06
6.76883e-06
7.10072e-06
5.04841e-06
1.45976e-06
-2.33332e-06
-4.94593e-06
-5.45814e-06
-3.65313e-06
-3.91237e-08
4.00808e-06
6.72931e-06
7.0785e-06
5.05194e-06
1.48818e-06
-2.29038e-06
-4.90468e-06
-5.4343e-06
-3.65016e-06
-6.94074e-08
3.95973e-06
6.67986e-06
7.04558e-06
5.04796e-06
1.51517e-06
-2.24218e-06
-4.85343e-06
-5.39905e-06
-3.63827e-06
-9.66851e-08
3.90813e-06
6.62215e-06
7.00234e-06
5.03541e-06
1.5386e-06
-2.19112e-06
-4.79397e-06
-5.35276e-06
-3.61662e-06
-1.18584e-07
3.85618e-06
6.55853e-06
6.94976e-06
5.01354e-06
1.55624e-06
-2.14013e-06
-4.72878e-06
-5.29654e-06
-3.58483e-06
-1.32718e-07
3.80715e-06
6.49203e-06
6.88962e-06
4.98209e-06
1.56593e-06
-2.09249e-06
-4.66108e-06
-5.23226e-06
-3.54334e-06
-1.36922e-07
3.76468e-06
6.4264e-06
6.82456e-06
4.94157e-06
1.56584e-06
-2.05173e-06
-4.59479e-06
-5.1628e-06
-3.49388e-06
-1.29491e-07
3.73271e-06
6.3663e-06
6.75557e-06
4.89361e-06
1.55466e-06
-2.0215e-06
-4.53467e-06
-5.09242e-06
-3.44023e-06
-1.09753e-07
3.71555e-06
6.3177e-06
6.69371e-06
4.84141e-06
1.53199e-06
-2.00562e-06
-4.48653e-06
-5.02737e-06
-3.3887e-06
-8.00862e-08
3.71644e-06
6.28815e-06
6.64415e-06
4.79033e-06
1.50004e-06
-2.00688e-06
-4.45707e-06
-4.97588e-06
-3.3574e-06
-5.40098e-08
3.72868e-06
6.28091e-06
6.62139e-06
4.76008e-06
1.4754e-06
-2.01789e-06
-4.45093e-06
-4.95462e-06
-3.35166e-06
-3.52374e-08
3.75177e-06
6.30309e-06
6.63558e-06
4.75664e-06
1.45771e-06
-2.04311e-06
-4.47349e-06
-4.96504e-06
-3.38162e-06
-6.06246e-08
3.73929e-06
6.30922e-06
6.65693e-06
4.78568e-06
1.48167e-06
-2.03191e-06
-4.47872e-06
-4.98485e-06
-3.43129e-06
-9.01279e-08
3.73707e-06
6.33626e-06
6.7038e-06
4.83494e-06
1.51329e-06
-2.02934e-06
-4.50575e-06
-5.03342e-06
-3.48344e-06
-1.1064e-07
3.75185e-06
6.3816e-06
6.76287e-06
4.88571e-06
1.53651e-06
-2.04287e-06
-4.55066e-06
-5.09535e-06
-3.53211e-06
-1.19683e-07
3.78079e-06
6.43821e-06
6.8269e-06
4.93289e-06
1.54906e-06
-2.07006e-06
-4.60723e-06
-5.16281e-06
-3.5736e-06
-1.17719e-07
3.81992e-06
6.50043e-06
6.88986e-06
4.97326e-06
1.55115e-06
-2.10741e-06
-4.66998e-06
-5.22996e-06
-3.60611e-06
-1.0625e-07
3.86556e-06
6.56385e-06
6.9484e-06
5.00517e-06
1.54389e-06
-2.15153e-06
-4.73444e-06
-5.29261e-06
-3.62907e-06
-8.72536e-08
3.9143e-06
6.62487e-06
6.99995e-06
5.02802e-06
1.52895e-06
-2.19913e-06
-4.79686e-06
-5.34792e-06
-3.64272e-06
-6.29486e-08
3.96301e-06
6.68058e-06
7.04278e-06
5.042e-06
1.5083e-06
-2.2471e-06
-4.85415e-06
-5.394e-06
-3.64776e-06
-3.55499e-08
4.00894e-06
6.72865e-06
7.07584e-06
5.04769e-06
1.48399e-06
-2.29267e-06
-4.90385e-06
-5.42966e-06
-3.64516e-06
-7.10423e-09
4.04983e-06
6.76741e-06
7.09863e-06
5.04596e-06
1.45798e-06
-2.33353e-06
-4.9442e-06
-5.45437e-06
-3.63638e-06
2.04694e-08
4.08406e-06
6.79603e-06
7.11145e-06
5.03815e-06
1.43215e-06
-2.36796e-06
-4.97428e-06
-5.46847e-06
-3.62388e-06
4.50781e-08
4.1106e-06
6.81492e-06
7.11599e-06
5.02661e-06
1.40864e-06
-2.39482e-06
-4.99442e-06
-5.47374e-06
-3.61151e-06
6.4134e-08
4.12886e-06
6.8257e-06
7.11549e-06
5.01501e-06
1.39016e-06
-2.41339e-06
-5.00614e-06
-5.47359e-06
-3.60376e-06
7.47805e-08
4.13842e-06
6.83056e-06
7.11395e-06
5.00767e-06
1.37971e-06
-2.42311e-06
-5.01151e-06
-5.47222e-06
-3.6039e-06
7.49178e-08
4.1389e-06
6.83106e-06
7.11426e-06
5.00771e-06
1.3795e-06
-2.42353e-06
-5.01202e-06
-5.47265e-06
-3.61214e-06
6.43118e-08
4.13012e-06
6.8271e-06
7.11649e-06
5.01534e-06
1.38977e-06
-2.41443e-06
-5.00754e-06
-5.47493e-06
-3.62549e-06
4.46979e-08
4.11209e-06
6.81695e-06
7.11779e-06
5.02769e-06
1.40871e-06
-2.39591e-06
-4.99643e-06
-5.47615e-06
-3.63954e-06
1.88023e-08
4.08507e-06
6.79829e-06
7.11413e-06
5.0405e-06
1.43346e-06
-2.36835e-06
-4.97647e-06
-5.47206e-06
-3.65029e-06
-1.07072e-08
4.04965e-06
6.76941e-06
7.10211e-06
5.04995e-06
1.46122e-06
-2.33249e-06
-4.94603e-06
-5.45908e-06
-3.65501e-06
-4.15592e-08
4.00691e-06
6.72986e-06
7.07987e-06
5.05346e-06
1.48964e-06
-2.28953e-06
-4.90475e-06
-5.43522e-06
-3.65199e-06
-7.16499e-08
3.95859e-06
6.68037e-06
7.04692e-06
5.04945e-06
1.51664e-06
-2.2413e-06
-4.85347e-06
-5.39994e-06
-3.64006e-06
-9.87667e-08
3.90702e-06
6.62261e-06
7.00364e-06
5.03686e-06
1.54006e-06
-2.19023e-06
-4.79397e-06
-5.35362e-06
-3.61837e-06
-1.20532e-07
3.85509e-06
6.55895e-06
6.95102e-06
5.01496e-06
1.5577e-06
-2.13922e-06
-4.72875e-06
-5.29736e-06
-3.58653e-06
-1.34556e-07
3.80608e-06
6.49242e-06
6.89084e-06
4.98345e-06
1.56738e-06
-2.09157e-06
-4.66101e-06
-5.23304e-06
-3.54499e-06
-1.38671e-07
3.76362e-06
6.42676e-06
6.82574e-06
4.94289e-06
1.56728e-06
-2.0508e-06
-4.59469e-06
-5.16355e-06
-3.4955e-06
-1.31171e-07
3.73166e-06
6.36662e-06
6.75671e-06
4.89488e-06
1.55607e-06
-2.02056e-06
-4.53455e-06
-5.09313e-06
-3.4418e-06
-1.11379e-07
3.71452e-06
6.31801e-06
6.69483e-06
4.84264e-06
1.53337e-06
-2.00469e-06
-4.4864e-06
-5.02806e-06
-3.39024e-06
-8.16743e-08
3.71542e-06
6.28846e-06
6.64525e-06
4.79154e-06
1.5014e-06
-2.00596e-06
-4.45693e-06
-4.97655e-06
-3.35892e-06
-5.55741e-08
3.72769e-06
6.28122e-06
6.62248e-06
4.76126e-06
1.47674e-06
-2.01699e-06
-4.45079e-06
-4.95528e-06
-3.3524e-06
-3.88389e-08
3.75002e-06
6.30284e-06
6.63563e-06
4.75676e-06
1.45784e-06
-2.04302e-06
-4.47351e-06
-4.96512e-06
-3.38236e-06
-6.42461e-08
3.73753e-06
6.30895e-06
6.65698e-06
4.78581e-06
1.4818e-06
-2.03182e-06
-4.47873e-06
-4.98492e-06
-3.43202e-06
-9.37788e-08
3.73528e-06
6.33598e-06
6.70384e-06
4.83507e-06
1.51343e-06
-2.02924e-06
-4.50576e-06
-5.03349e-06
-3.48417e-06
-1.14329e-07
3.75004e-06
6.38131e-06
6.76291e-06
4.88583e-06
1.53665e-06
-2.04276e-06
-4.55066e-06
-5.09541e-06
-3.53285e-06
-1.23418e-07
3.77897e-06
6.43791e-06
6.82694e-06
4.93302e-06
1.54921e-06
-2.06994e-06
-4.60722e-06
-5.16287e-06
-3.57434e-06
-1.21503e-07
3.81809e-06
6.50012e-06
6.88989e-06
4.97339e-06
1.5513e-06
-2.10728e-06
-4.66996e-06
-5.23001e-06
-3.60685e-06
-1.10081e-07
3.86371e-06
6.56353e-06
6.94843e-06
5.0053e-06
1.54406e-06
-2.15139e-06
-4.73442e-06
-5.29265e-06
-3.62981e-06
-9.1126e-08
3.91244e-06
6.62455e-06
6.99998e-06
5.02816e-06
1.52912e-06
-2.19898e-06
-4.79683e-06
-5.34797e-06
-3.64347e-06
-6.68513e-08
3.96115e-06
6.68025e-06
7.04281e-06
5.04214e-06
1.50848e-06
-2.24695e-06
-4.85411e-06
-5.39404e-06
-3.64851e-06
-3.94643e-08
4.00707e-06
6.72832e-06
7.07587e-06
5.04783e-06
1.48419e-06
-2.29251e-06
-4.90381e-06
-5.42971e-06
-3.64592e-06
-1.10038e-08
4.04798e-06
6.76707e-06
7.09865e-06
5.04611e-06
1.45818e-06
-2.33336e-06
-4.94415e-06
-5.45442e-06
-3.63713e-06
1.66156e-08
4.08223e-06
6.7957e-06
7.11148e-06
5.03831e-06
1.43236e-06
-2.36779e-06
-4.97424e-06
-5.46852e-06
-3.62464e-06
4.12994e-08
4.10879e-06
6.8146e-06
7.11602e-06
5.02677e-06
1.40885e-06
-2.39464e-06
-4.99438e-06
-5.47379e-06
-3.61226e-06
6.0454e-08
4.12708e-06
6.82538e-06
7.11552e-06
5.01517e-06
1.39037e-06
-2.41321e-06
-5.0061e-06
-5.47365e-06
-3.60451e-06
7.12161e-08
4.13667e-06
6.83024e-06
7.11398e-06
5.00783e-06
1.37993e-06
-2.42293e-06
-5.01147e-06
-5.47228e-06
-3.60464e-06
7.14801e-08
4.1372e-06
6.83075e-06
7.1143e-06
5.00788e-06
1.37971e-06
-2.42335e-06
-5.01198e-06
-5.4727e-06
-3.61286e-06
6.10062e-08
4.12845e-06
6.82679e-06
7.11652e-06
5.0155e-06
1.38999e-06
-2.41425e-06
-5.0075e-06
-5.47499e-06
-3.62621e-06
4.15252e-08
4.11046e-06
6.81664e-06
7.11782e-06
5.02785e-06
1.40893e-06
-2.39573e-06
-4.99639e-06
-5.47621e-06
-3.64024e-06
1.57603e-08
4.08348e-06
6.79799e-06
7.11416e-06
5.04066e-06
1.43367e-06
-2.36817e-06
-4.97642e-06
-5.47211e-06
-3.65098e-06
-1.36229e-08
4.0481e-06
6.76911e-06
7.10214e-06
5.0501e-06
1.46143e-06
-2.33231e-06
-4.94599e-06
-5.45913e-06
-3.65568e-06
-4.43544e-08
4.0054e-06
6.72956e-06
7.07989e-06
5.05361e-06
1.48984e-06
-2.28935e-06
-4.90471e-06
-5.43527e-06
-3.65266e-06
-7.43319e-08
3.95712e-06
6.68008e-06
7.04694e-06
5.04959e-06
1.51683e-06
-2.24113e-06
-4.85343e-06
-5.39998e-06
-3.64072e-06
-1.01344e-07
3.90559e-06
6.62233e-06
7.00366e-06
5.037e-06
1.54024e-06
-2.19006e-06
-4.79393e-06
-5.35366e-06
-3.61902e-06
-1.23015e-07
3.85369e-06
6.55869e-06
6.95104e-06
5.01509e-06
1.55787e-06
-2.13906e-06
-4.72872e-06
-5.2974e-06
-3.58717e-06
-1.36955e-07
3.80472e-06
6.49216e-06
6.89086e-06
4.98359e-06
1.56755e-06
-2.09142e-06
-4.66098e-06
-5.23308e-06
-3.54562e-06
-1.41e-07
3.7623e-06
6.42651e-06
6.82576e-06
4.94303e-06
1.56743e-06
-2.05066e-06
-4.59467e-06
-5.16359e-06
-3.49612e-06
-1.33443e-07
3.73037e-06
6.36639e-06
6.75674e-06
4.89502e-06
1.55622e-06
-2.02044e-06
-4.53454e-06
-5.09318e-06
-3.44243e-06
-1.13609e-07
3.71325e-06
6.31779e-06
6.69486e-06
4.84279e-06
1.53351e-06
-2.00457e-06
-4.48639e-06
-5.02812e-06
-3.39086e-06
-8.38758e-08
3.71418e-06
6.28825e-06
6.64529e-06
4.79168e-06
1.50154e-06
-2.00585e-06
-4.45693e-06
-4.97661e-06
-3.35955e-06
-5.77588e-08
3.72646e-06
6.28103e-06
6.62252e-06
4.76141e-06
1.47688e-06
-2.01689e-06
-4.4508e-06
-4.95535e-06
-3.35138e-06
-3.86298e-08
3.75008e-06
6.3025e-06
6.63446e-06
4.75514e-06
1.45631e-06
-2.04385e-06
-4.47344e-06
-4.9642e-06
-3.38132e-06
-6.40127e-08
3.7376e-06
6.30862e-06
6.65579e-06
4.78417e-06
1.48026e-06
-2.03266e-06
-4.47867e-06
-4.984e-06
-3.43095e-06
-9.35164e-08
3.73536e-06
6.33564e-06
6.70263e-06
4.83339e-06
1.51186e-06
-2.03009e-06
-4.50568e-06
-5.03253e-06
-3.48306e-06
-1.14041e-07
3.75012e-06
6.38095e-06
6.76166e-06
4.88412e-06
1.53506e-06
-2.04361e-06
-4.55056e-06
-5.09441e-06
-3.53169e-06
-1.23108e-07
3.77904e-06
6.43751e-06
6.82564e-06
4.93126e-06
1.5476e-06
-2.07078e-06
-4.60709e-06
-5.16182e-06
-3.57315e-06
-1.21177e-07
3.81813e-06
6.49967e-06
6.88855e-06
4.9716e-06
1.54969e-06
-2.1081e-06
-4.66979e-06
-5.22892e-06
-3.60563e-06
-1.09743e-07
3.86374e-06
6.56304e-06
6.94705e-06
5.00347e-06
1.54244e-06
-2.15219e-06
-4.73421e-06
-5.29151e-06
-3.62855e-06
-9.07808e-08
3.91244e-06
6.62402e-06
6.99855e-06
5.0263e-06
1.5275e-06
-2.19975e-06
-4.79658e-06
-5.34678e-06
-3.64219e-06
-6.65018e-08
3.96112e-06
6.67968e-06
7.04135e-06
5.04026e-06
1.50687e-06
-2.24769e-06
-4.85382e-06
-5.39282e-06
-3.64721e-06
-3.91127e-08
4.00702e-06
6.72772e-06
7.07438e-06
5.04594e-06
1.48258e-06
-2.29322e-06
-4.90348e-06
-5.42845e-06
-3.6446e-06
-1.06516e-08
4.0479e-06
6.76644e-06
7.09714e-06
5.0442e-06
1.45659e-06
-2.33405e-06
-4.94379e-06
-5.45314e-06
-3.63581e-06
1.69677e-08
4.08213e-06
6.79505e-06
7.10996e-06
5.03639e-06
1.43078e-06
-2.36845e-06
-4.97386e-06
-5.46723e-06
-3.62331e-06
4.16523e-08
4.10868e-06
6.81392e-06
7.11449e-06
5.02486e-06
1.40729e-06
-2.39529e-06
-4.99398e-06
-5.47249e-06
-3.61094e-06
6.08109e-08
4.12696e-06
6.82469e-06
7.11398e-06
5.01326e-06
1.38882e-06
-2.41385e-06
-5.00569e-06
-5.47234e-06
-3.60318e-06
7.15824e-08
4.13655e-06
6.82955e-06
7.11244e-06
5.00592e-06
1.37838e-06
-2.42356e-06
-5.01106e-06
-5.47097e-06
-3.60331e-06
7.18628e-08
4.13708e-06
6.83006e-06
7.11276e-06
5.00597e-06
1.37816e-06
-2.42398e-06
-5.01157e-06
-5.47139e-06
-3.61153e-06
6.14121e-08
4.12834e-06
6.8261e-06
7.11498e-06
5.0136e-06
1.38843e-06
-2.41489e-06
-5.00709e-06
-5.47368e-06
-3.62486e-06
4.19595e-08
4.11037e-06
6.81596e-06
7.11629e-06
5.02594e-06
1.40736e-06
-2.39638e-06
-4.99599e-06
-5.4749e-06
-3.63889e-06
1.62255e-08
4.08341e-06
6.79733e-06
7.11264e-06
5.03875e-06
1.4321e-06
-2.36884e-06
-4.97604e-06
-5.47082e-06
-3.64962e-06
-1.31261e-08
4.04805e-06
6.76847e-06
7.10063e-06
5.0482e-06
1.45983e-06
-2.333e-06
-4.94563e-06
-5.45785e-06
-3.65434e-06
-4.38273e-08
4.00538e-06
6.72895e-06
7.07841e-06
5.05171e-06
1.48824e-06
-2.29008e-06
-4.90438e-06
-5.43401e-06
-3.65132e-06
-7.37769e-08
3.95713e-06
6.6795e-06
7.04549e-06
5.04772e-06
1.51521e-06
-2.24189e-06
-4.85315e-06
-5.39875e-06
-3.6394e-06
-1.00765e-07
3.90564e-06
6.6218e-06
7.00225e-06
5.03515e-06
1.53862e-06
-2.19085e-06
-4.79369e-06
-5.35247e-06
-3.61772e-06
-1.22417e-07
3.85377e-06
6.55819e-06
6.94967e-06
5.01327e-06
1.55624e-06
-2.13988e-06
-4.72852e-06
-5.29626e-06
-3.5859e-06
-1.36345e-07
3.80482e-06
6.49171e-06
6.88954e-06
4.9818e-06
1.56592e-06
-2.09227e-06
-4.66083e-06
-5.23198e-06
-3.54439e-06
-1.40387e-07
3.76242e-06
6.4261e-06
6.82449e-06
4.94127e-06
1.56581e-06
-2.05153e-06
-4.59456e-06
-5.16254e-06
-3.49492e-06
-1.32835e-07
3.73051e-06
6.36602e-06
6.75552e-06
4.8933e-06
1.55461e-06
-2.02132e-06
-4.53447e-06
-5.09217e-06
-3.44127e-06
-1.13016e-07
3.7134e-06
6.31745e-06
6.69368e-06
4.84111e-06
1.53193e-06
-2.00546e-06
-4.48635e-06
-5.02715e-06
-3.38974e-06
-8.33034e-08
3.71432e-06
6.28792e-06
6.64413e-06
4.79003e-06
1.49998e-06
-2.00673e-06
-4.4569e-06
-4.97567e-06
-3.35845e-06
-5.72071e-08
3.72659e-06
6.28069e-06
6.62138e-06
4.75978e-06
1.47534e-06
-2.01775e-06
-4.45076e-06
-4.95442e-06
-3.34827e-06
-3.55514e-08
3.75204e-06
6.30247e-06
6.63226e-06
4.75154e-06
1.45301e-06
-2.04584e-06
-4.47354e-06
-4.96249e-06
-3.37815e-06
-6.08642e-08
3.73963e-06
6.30862e-06
6.65358e-06
4.7805e-06
1.47688e-06
-2.03471e-06
-4.4788e-06
-4.98228e-06
-3.42766e-06
-9.0255e-08
3.73747e-06
6.33566e-06
6.70034e-06
4.82961e-06
1.50837e-06
-2.03222e-06
-4.50583e-06
-5.03074e-06
-3.47962e-06
-1.10657e-07
3.75229e-06
6.38094e-06
6.75924e-06
4.88018e-06
1.53145e-06
-2.04581e-06
-4.55068e-06
-5.09249e-06
-3.52808e-06
-1.19609e-07
3.78124e-06
6.43744e-06
6.82311e-06
4.92717e-06
1.54387e-06
-2.07301e-06
-4.60715e-06
-5.15974e-06
-3.56936e-06
-1.17576e-07
3.82034e-06
6.49951e-06
6.88586e-06
4.96736e-06
1.54585e-06
-2.11035e-06
-4.66977e-06
-5.22665e-06
-3.60168e-06
-1.0606e-07
3.86593e-06
6.56277e-06
6.9442e-06
4.99909e-06
1.53851e-06
-2.15443e-06
-4.73408e-06
-5.28907e-06
-3.62447e-06
-8.70349e-08
3.9146e-06
6.62364e-06
6.99555e-06
5.02179e-06
1.5235e-06
-2.20197e-06
-4.79634e-06
-5.34417e-06
-3.63799e-06
-6.27138e-08
3.96323e-06
6.67918e-06
7.03821e-06
5.03564e-06
1.50282e-06
-2.24986e-06
-4.85347e-06
-5.39006e-06
-3.64292e-06
-3.53022e-08
4.00908e-06
6.72711e-06
7.07112e-06
5.04123e-06
1.47851e-06
-2.29535e-06
-4.90302e-06
-5.42555e-06
-3.64025e-06
-6.83626e-09
4.0499e-06
6.76573e-06
7.09378e-06
5.03943e-06
1.45251e-06
-2.33612e-06
-4.94323e-06
-5.45013e-06
-3.63142e-06
2.07735e-08
4.08407e-06
6.79426e-06
7.10652e-06
5.03159e-06
1.42671e-06
-2.37046e-06
-4.97321e-06
-5.46413e-06
-3.6189e-06
4.54392e-08
4.11057e-06
6.81307e-06
7.11101e-06
5.02004e-06
1.40323e-06
-2.39725e-06
-4.99327e-06
-5.46933e-06
-3.60652e-06
6.4578e-08
4.12881e-06
6.82379e-06
7.11047e-06
5.00844e-06
1.38479e-06
-2.41577e-06
-5.00493e-06
-5.46915e-06
-3.59876e-06
7.53385e-08
4.13837e-06
6.82863e-06
7.10893e-06
5.0011e-06
1.37436e-06
-2.42546e-06
-5.01027e-06
-5.46776e-06
-3.59889e-06
7.56235e-08
4.1389e-06
6.82914e-06
7.10925e-06
5.00115e-06
1.37414e-06
-2.42588e-06
-5.01078e-06
-5.46819e-06
-3.60711e-06
6.51936e-08
4.13019e-06
6.8252e-06
7.11149e-06
5.00877e-06
1.3844e-06
-2.41681e-06
-5.00633e-06
-5.47049e-06
-3.62045e-06
4.57716e-08
4.11226e-06
6.81512e-06
7.11284e-06
5.02112e-06
1.40331e-06
-2.39835e-06
-4.99528e-06
-5.47175e-06
-3.63449e-06
2.00688e-08
4.08537e-06
6.79655e-06
7.10924e-06
5.03394e-06
1.42802e-06
-2.37087e-06
-4.9754e-06
-5.46772e-06
-3.64526e-06
-9.25984e-09
4.05008e-06
6.76779e-06
7.09732e-06
5.04342e-06
1.45574e-06
-2.33509e-06
-4.94507e-06
-5.45484e-06
-3.65004e-06
-3.99519e-08
4.00748e-06
6.72837e-06
7.07521e-06
5.047e-06
1.48415e-06
-2.29223e-06
-4.90393e-06
-5.43111e-06
-3.64711e-06
-6.99102e-08
3.9593e-06
6.67904e-06
7.04242e-06
5.04309e-06
1.51114e-06
-2.2441e-06
-4.85282e-06
-5.396e-06
-3.63531e-06
-9.6927e-08
3.90786e-06
6.62146e-06
6.99933e-06
5.03062e-06
1.53459e-06
-2.19311e-06
-4.79349e-06
-5.34988e-06
-3.61377e-06
-1.1863e-07
3.85603e-06
6.55799e-06
6.94693e-06
5.00887e-06
1.55228e-06
-2.14217e-06
-4.72845e-06
-5.29384e-06
-3.5821e-06
-1.32631e-07
3.80712e-06
6.49162e-06
6.88698e-06
4.97754e-06
1.56204e-06
-2.09457e-06
-4.66088e-06
-5.22974e-06
-3.54076e-06
-1.36768e-07
3.76472e-06
6.42612e-06
6.82209e-06