/*--------------------------------*- C++ -*----------------------------------*\
| =========                 |                                                 |
| \\      /  F ield         | OpenFOAM: The Open Source CFD Toolbox           |
|  \\    /   O peration     | Version:  2.3.0                                 |
|   \\  /    A nd           | Web:      www.OpenFOAM.org                      |
|    \\/     M anipulation  |                                                 |
\*---------------------------------------------------------------------------*/
FoamFile
{
    version     2.0;
    format      ascii;
    class       surfaceScalarField;
    location    "400";
    object      phi;
}
// * * * * * * * * * * * * * * * * * * * * * * * * * * * * * * * * * * * * * //

dimensions      [0 3 -1 0 0 0 0];

internalField   nonuniform List<scalar> 
8300
(
0.0446422
-1.78335e-07
-2.21379e-09
0.0446434
-1.24496e-06
-1.73494e-09
0.0446452
-1.78424e-06
-6.93066e-10
0.0446468
-1.5856e-06
-1.38935e-10
0.0446476
-7.67486e-07
4.00323e-10
0.0446472
3.16213e-07
1.45678e-09
0.044646
1.22883e-06
2.28942e-09
0.0446443
1.66923e-06
2.07602e-09
0.0446428
1.50096e-06
7.40084e-10
8.44692e-07
-1.10664e-09
0.0529598
-7.28581e-07
-2.19905e-09
0.0529612
-2.62551e-06
-2.32336e-09
0.0529628
-3.37696e-06
-1.62814e-09
0.052964
-2.74077e-06
-9.43829e-10
0.0529643
-1.10023e-06
-8.74982e-12
0.0529637
8.74897e-07
1.43977e-09
0.0529625
2.48636e-06
2.69759e-09
0.052961
3.18525e-06
2.80704e-09
0.0529597
2.71896e-06
1.53153e-09
1.30546e-06
-6.01629e-10
0.0575151
-1.61467e-06
-1.75061e-09
0.0575165
-3.95991e-06
-2.51888e-09
0.0575177
-4.59957e-06
-2.39059e-09
0.0575183
-3.35911e-06
-1.8421e-09
0.0575181
-9.08264e-07
-7.06877e-10
0.0575172
1.77023e-06
1.06389e-09
0.0575159
3.74851e-06
2.76525e-09
0.0575148
4.35589e-06
3.3317e-09
0.0575141
3.37337e-06
2.34265e-09
1.19211e-06
2.28016e-10
0.0606539
-2.62052e-06
-1.0855e-09
0.060655
-5.10208e-06
-2.51237e-09
0.0606559
-5.41254e-06
-3.06829e-09
0.060656
-3.52172e-06
-2.83536e-09
0.0606555
-3.77526e-07
-1.66235e-09
0.0606545
2.77251e-06
4.86325e-10
0.0606534
4.84303e-06
2.69207e-09
0.0606526
5.14122e-06
3.81342e-09
0.0606524
3.56688e-06
3.22541e-09
7.09247e-07
1.16086e-09
0.0630408
-3.60231e-06
-3.02284e-10
0.0630417
-5.97531e-06
-2.39827e-09
0.0630421
-5.83063e-06
-3.70405e-09
0.0630419
-3.32598e-06
-3.89604e-09
0.0630412
3.46139e-07
-2.6735e-09
0.0630403
3.74023e-06
-1.69549e-10
0.0630394
5.68891e-06
2.54967e-09
0.063039
5.55242e-06
4.29707e-09
0.0630392
3.39716e-06
4.17541e-09
7.79312e-09
2.27883e-09
0.0649569
-4.45672e-06
5.11974e-10
0.0649575
-6.54144e-06
-2.23891e-09
0.0649576
-5.89253e-06
-4.32703e-09
0.0649571
-2.86901e-06
-5.00268e-09
0.0649563
1.1432e-06
-3.81716e-09
0.0649555
4.57456e-06
-9.62872e-10
0.0649549
6.24576e-06
2.38373e-09
0.0649549
5.62324e-06
4.80415e-09
0.0649553
2.95959e-06
5.1857e-09
-7.88204e-07
3.43265e-09
0.0665424
-5.1093e-06
1.39484e-09
0.0665426
-6.78878e-06
-2.07707e-09
0.0665424
-5.65128e-06
-4.9536e-09
0.0665418
-2.24517e-06
-6.13239e-09
0.066541
1.91302e-06
-4.99832e-09
0.0665404
5.20473e-06
-1.77675e-09
0.0665401
6.49922e-06
2.22635e-09
0.0665404
5.40202e-06
5.34325e-09
0.066541
2.34768e-06
6.23503e-09
-1.57361e-06
4.61859e-09
0.0678739
-5.50784e-06
2.24447e-09
0.0678738
-6.72522e-06
-1.94201e-09
0.0678733
-5.1695e-06
-5.58925e-09
0.0678726
-1.54546e-06
-7.26205e-09
0.067872
2.56996e-06
-6.17096e-09
0.0678716
5.58108e-06
-2.56858e-09
0.0678717
6.45427e-06
2.10053e-09
0.0678721
4.94746e-06
5.91334e-09
0.0678728
1.65253e-06
7.29502e-09
-2.25861e-06
5.7967e-09
0.0689949
-5.61733e-06
3.0264e-09
0.0689946
-6.37286e-06
-1.85248e-09
0.0689939
-4.51587e-06
-6.22976e-09
0.0689933
-8.5708e-07
-8.36181e-09
0.0689928
3.0406e-06
-7.29402e-09
0.0689927
5.6703e-06
-3.30313e-09
0.068993
6.13018e-06
2.02138e-09
0.0689937
4.32516e-06
6.50459e-09
0.0689943
9.61899e-07
8.34301e-09
-2.7662e-06
6.92487e-09
0.06993
-5.41594e-06
3.71003e-09
0.0699293
-5.76323e-06
-1.81742e-09
0.0699286
-3.76125e-06
-6.86091e-09
0.069928
-2.61842e-07
-9.39931e-09
0.0699278
3.26247e-06
-8.32648e-09
0.069928
5.4517e-06
-3.94685e-09
0.0699286
5.55589e-06
1.99593e-09
0.0699293
3.6036e-06
7.09894e-09
0.0699299
3.5836e-07
9.3387e-09
-3.03082e-06
7.96164e-09
0.0706919
-4.89311e-06
4.27479e-09
0.0706911
-4.93258e-06
-1.83555e-09
0.0706903
-2.97274e-06
-7.45996e-09
0.0706899
1.68871e-07
-1.03343e-08
0.07069
3.18626e-06
-9.2303e-09
0.0706905
4.91577e-06
-4.48135e-09
0.0706913
4.76531e-06
2.02215e-09
0.0706921
2.84794e-06
7.67058e-09
0.0706925
-8.6116e-08
1.02429e-08
-3.00051e-06
8.86895e-09
0.0712881
-4.05244e-06
4.7112e-09
0.0712871
-3.91787e-06
-1.89477e-09
0.0712863
-2.20437e-06
-7.9967e-09
0.0712861
3.85243e-07
-1.113e-08
0.0712865
2.78453e-06
-9.97429e-09
0.0712874
4.06713e-06
-4.89489e-09
0.0712883
3.79333e-06
2.08779e-09
0.0712891
2.11058e-06
8.18727e-09
0.0712893
-3.21386e-07
1.1016e-08
-2.64552e-06
9.61559e-09
0.0717244
-2.92046e-06
5.02127e-09
0.0717232
-2.75541e-06
-1.97321e-09
0.0717225
-1.4865e-06
-8.43761e-09
0.0717225
3.74756e-07
-1.17538e-08
0.0717232
2.06667e-06
-1.05385e-08
0.0717244
2.93296e-06
-5.18886e-09
0.0717255
2.67463e-06
2.17119e-09
0.0717262
1.42076e-06
8.61399e-09
0.0717262
-3.34612e-07
1.16241e-08
-1.97342e-06
1.01816e-08
0.072008
-1.5571e-06
5.21682e-09
0.0720068
-1.48338e-06
-2.044e-09
0.0720061
-8.2005e-07
-8.7522e-09
0.0720063
1.73742e-07
-1.21827e-08
0.0720073
1.09194e-06
-1.09164e-08
0.0720087
1.57275e-06
-5.3741e-09
0.0720099
1.44636e-06
2.24569e-09
0.0720105
7.79305e-07
8.91865e-09
0.0720103
-1.61357e-07
1.2043e-08
-1.04269e-06
1.05602e-08
0.0721471
-5.81449e-08
5.31545e-09
0.0721458
-1.45532e-07
-2.08292e-09
0.0721451
-1.80711e-07
-8.91587e-09
0.0721455
-1.35562e-07
-1.24046e-08
0.0721466
-3.10183e-08
-1.11109e-08
0.0721481
8.03597e-08
-5.46758e-09
0.0721494
1.52065e-07
2.28702e-09
0.07215
1.62937e-07
9.07915e-09
0.0721497
1.17672e-07
1.22599e-08
3.75894e-08
1.0754e-08
0.0721471
1.4561e-06
5.32909e-09
0.0721458
1.20817e-06
-2.07528e-09
0.0721451
4.69098e-07
-8.91694e-09
0.0721454
-4.43658e-07
-1.24147e-08
0.0721466
-1.16244e-06
-1.11261e-08
0.0721481
-1.42693e-06
-5.48096e-09
0.0721494
-1.15793e-06
2.28051e-09
0.07215
-4.64016e-07
9.08119e-09
0.0721497
3.951e-07
1.22692e-08
1.1263e-06
1.07672e-08
0.072008
2.86233e-06
5.25781e-09
0.0720067
2.52521e-06
-2.01978e-09
0.072006
1.1657e-06
-8.75385e-09
0.0720063
-6.40594e-07
-1.22115e-08
0.0720073
-2.16055e-06
-1.09612e-08
0.0720087
-2.82899e-06
-5.41422e-09
0.0720099
-2.43068e-06
2.22506e-09
0.0720106
-1.13585e-06
8.92349e-09
0.0720104
5.63187e-07
1.20691e-08
2.08018e-06
1.05983e-08
0.0717244
4.05668e-06
5.08964e-09
0.0717232
3.755e-06
-1.92886e-09
0.0717224
1.93013e-06
-8.43572e-09
0.0717224
-6.428e-07
-1.17962e-08
0.0717232
-2.9112e-06
-1.06096e-08
0.0717244
-4.0243e-06
-5.25558e-09
0.0717256
-3.61568e-06
2.1335e-09
0.0717263
-1.87224e-06
8.61561e-09
0.0717263
5.40125e-07
1.16613e-08
2.78437e-06
1.02409e-08
0.0712881
4.96853e-06
4.80666e-09
0.071287
4.8503e-06
-1.82563e-09
0.0712862
2.75714e-06
-7.98286e-09
0.071286
-4.12016e-07
-1.11784e-08
0.0712864
-3.34767e-06
-1.00666e-08
0.0712874
-4.94313e-06
-4.98762e-09
0.0712884
-4.66661e-06
2.02933e-09
0.0712892
-2.66773e-06
8.17844e-09
0.0712894
2.88724e-07
1.10561e-08
3.17267e-06
9.6901e-09
0.070692
5.56094e-06
4.39389e-09
0.0706911
5.76573e-06
-1.73715e-09
0.0706902
3.61201e-06
-7.42572e-09
0.0706898
4.10804e-08
-1.038e-08
0.0706899
-3.45328e-06
-9.33706e-09
0.0706905
-5.54826e-06
-4.59621e-09
0.0706914
-5.53976e-06
1.93968e-09
0.0706922
-3.48845e-06
7.64305e-09
0.0706926
-1.79718e-07
1.02758e-08
3.2301e-06
8.95075e-09
0.06993
5.82209e-06
3.84955e-09
0.0699293
6.45666e-06
-1.68669e-09
0.0699285
4.43663e-06
-6.79921e-09
0.0699279
6.67611e-07
-9.4341e-09
0.0699277
-3.24996e-06
-8.43985e-09
0.069928
-5.82713e-06
-4.08008e-09
0.0699286
-6.19279e-06
1.88772e-09
0.0699294
-4.27783e-06
7.04515e-09
0.0699301
-8.15722e-07
9.35428e-09
2.98097e-06
8.04172e-09
0.068995
5.75695e-06
3.18275e-09
0.0689946
6.88083e-06
-1.6885e-09
0.0689939
5.15991e-06
-6.13609e-09
0.0689932
1.39574e-06
-8.37976e-09
0.0689927
-2.78391e-06
-7.40617e-09
0.0689927
-5.78381e-06
-3.44942e-09
0.0689931
-6.58603e-06
1.8878e-09
0.0689937
-4.96676e-06
6.41884e-09
0.0689945
-1.54659e-06
8.32835e-09
2.47435e-06
6.99386e-09
0.067874
5.38392e-06
2.41083e-09
0.0678739
7.00184e-06
-1.74624e-09
0.0678733
5.70681e-06
-5.46214e-09
0.0678726
2.14174e-06
-7.24974e-09
0.0678719
-2.11672e-06
-6.27433e-09
0.0678716
-5.43568e-06
-2.72167e-09
0.0678717
-6.68608e-06
1.94417e-09
0.0678722
-5.48265e-06
5.79225e-09
0.0678729
-2.28755e-06
7.24512e-09
1.77518e-06
5.84551e-09
0.0665425
4.73624e-06
1.56554e-09
0.0665427
6.79353e-06
-1.85327e-09
0.0665424
6.00419e-06
-4.79517e-09
0.0665417
2.8152e-06
-6.09524e-09
0.066541
-1.32269e-06
-5.08639e-09
0.0665403
-4.81445e-06
-1.9319e-09
0.0665401
-6.47001e-06
2.05172e-09
0.0665404
-5.75553e-06
5.18592e-09
0.066541
-2.94727e-06
6.13926e-09
9.61742e-07
4.63823e-09
0.064957
3.86581e-06
6.74364e-10
0.0649576
6.24462e-06
-1.9931e-09
0.0649576
5.98457e-06
-4.14408e-09
0.0649571
3.3207e-06
-4.93704e-09
0.0649563
-4.89999e-07
-3.88585e-09
0.0649554
-3.96953e-06
-1.10388e-09
0.0649549
-5.92992e-06
2.19683e-09
0.0649549
-5.72204e-06
4.6113e-09
0.0649553
-3.42992e-06
5.04523e-09
1.26765e-07
3.41488e-09
0.0630409
2.84835e-06
-1.46795e-10
0.0630418
5.36423e-06
-2.1387e-09
0.0630422
5.58985e-06
-3.50797e-09
0.063042
3.55835e-06
-3.81092e-09
0.0630412
2.76591e-07
-2.71429e-09
0.0630402
-2.97301e-06
-2.83379e-10
0.0630394
-5.07806e-06
2.35735e-09
0.063039
-5.32905e-06
4.07117e-09
0.0630392
-3.6362e-06
3.993e-09
-6.20006e-07
2.21745e-09
0.060654
1.79052e-06
-9.36811e-10
0.0606551
4.18915e-06
-2.24988e-09
0.0606559
4.77633e-06
-2.87512e-09
0.0606561
3.42438e-06
-2.73899e-09
0.0606555
8.51425e-07
-1.59486e-09
0.0606545
-1.92683e-06
3.95609e-10
0.0606533
-3.9539e-06
2.50131e-09
0.0606525
-4.53812e-06
3.55844e-09
0.0606524
-3.46394e-06
2.99521e-09
-1.14803e-06
1.09114e-09
0.0575151
8.42253e-07
-1.61422e-09
0.0575165
2.79657e-06
-2.26752e-09
0.0575178
3.52457e-06
-2.22208e-09
0.0575184
2.8135e-06
-1.74307e-09
0.0575182
1.08027e-06
-6.31559e-10
0.0575172
-9.78456e-07
1.00779e-09
0.0575159
-2.63932e-06
2.58229e-09
0.0575147
-3.33371e-06
3.05187e-09
0.057514
-2.8075e-06
2.07196e-09
-1.29739e-06
1.10306e-10
0.0529598
2.29633e-07
-2.07239e-09
0.0529612
1.33604e-06
-2.10428e-09
0.0529629
1.87076e-06
-1.51348e-09
0.0529641
1.63572e-06
-8.56713e-10
0.0529644
7.64778e-07
1.00901e-10
0.0529638
-3.68598e-07
1.42819e-09
0.0529624
-1.31079e-06
2.5277e-09
0.0529609
-1.75205e-06
2.50787e-09
0.0529596
-1.55422e-06
1.23096e-09
-8.50801e-07
-7.155e-10
0.0446421
-2.09605e-09
0.0446434
-1.58156e-09
0.0446453
-6.61494e-10
0.0446469
-9.19396e-11
0.0446477
5.48077e-10
0.0446473
1.48409e-09
0.044646
2.13757e-09
0.0446442
1.77829e-09
0.0446427
4.4132e-10
-1.23333e-09
0.0446421
-1.48202e-07
-1.832e-09
0.0446434
-1.22343e-06
-1.77912e-09
0.0446451
-1.7819e-06
-8.89539e-10
0.0446467
-1.60294e-06
-6.22453e-10
0.0446475
-7.97922e-07
-1.52755e-10
0.0446473
2.86067e-07
1.14479e-09
0.044646
1.21089e-06
2.29257e-09
0.0446444
1.66831e-06
2.48899e-09
0.0446429
1.51687e-06
1.44544e-09
8.71535e-07
-3.03285e-10
0.0529598
-6.73241e-07
-1.94841e-09
0.0529612
-2.59319e-06
-2.60703e-09
0.0529628
-3.382e-06
-2.15943e-09
0.0529639
-2.77942e-06
-1.62194e-09
0.0529643
-1.15622e-06
-5.86971e-10
0.0529638
8.23255e-07
1.26679e-09
0.0529625
2.45763e-06
2.95787e-09
0.052961
3.18896e-06
3.47504e-09
0.0529598
2.75338e-06
2.38224e-09
1.35954e-06
2.09059e-10
0.0575151
-1.54539e-06
-1.66573e-09
0.0575164
-3.92826e-06
-3.06091e-09
0.0575177
-4.61955e-06
-3.23427e-09
0.0575183
-3.42034e-06
-2.7009e-09
0.0575181
-9.85197e-07
-1.28012e-09
0.0575172
1.7066e-06
1.06137e-09
0.057516
3.72068e-06
3.27967e-09
0.0575148
4.37304e-06
4.21626e-09
0.0575141
3.42886e-06
3.28941e-09
1.26793e-06
9.36257e-10
0.0606539
-2.54672e-06
-1.17915e-09
0.060655
-5.07914e-06
-3.28588e-09
0.0606559
-5.45094e-06
-4.15571e-09
0.060656
-3.60342e-06
-3.81121e-09
0.0606555
-4.69006e-07
-2.13456e-09
0.0606545
2.70549e-06
6.63336e-10
0.0606534
4.82385e-06
3.44039e-09
0.0606526
5.17574e-06
4.87378e-09
0.0606524
3.64212e-06
4.22008e-09
8.00166e-07
1.81478e-09
0.0630408
-3.53152e-06
-5.78248e-10
0.0630417
-5.96612e-06
-3.37737e-09
0.0630421
-5.88792e-06
-4.97494e-09
0.063042
-3.42419e-06
-4.93217e-09
0.0630413
2.46853e-07
-3.10183e-09
0.0630403
3.67679e-06
1.44054e-10
0.0630394
5.68313e-06
3.51246e-09
0.063039
5.60517e-06
5.49981e-09
0.0630391
3.48875e-06
5.18378e-09
1.07228e-07
2.74691e-09
0.0649569
-4.39463e-06
8.3908e-11
0.0649575
-6.54842e-06
-3.39843e-09
0.0649576
-5.96697e-06
-5.72975e-09
0.0649572
-2.97874e-06
-6.05244e-09
0.0649564
1.04225e-06
-4.12489e-09
0.0649555
4.51982e-06
-4.78194e-10
0.0649549
6.25563e-06
3.53934e-09
0.0649549
5.69284e-06
6.11773e-09
0.0649553
3.063e-06
6.17342e-09
-6.86534e-07
3.75758e-09
0.0665424
-5.05957e-06
7.63312e-10
0.0665427
-6.81214e-06
-3.3907e-09
0.0665424
-5.73952e-06
-6.44325e-09
0.0665418
-2.361e-06
-7.15617e-09
0.066541
1.81571e-06
-5.16771e-09
0.0665404
5.16195e-06
-1.08343e-09
0.0665401
6.5249e-06
3.55048e-09
0.0665403
5.48545e-06
6.73643e-09
0.0665409
2.45777e-06
7.17525e-09
-1.47519e-06
4.78639e-09
0.0678739
-5.47227e-06
1.41487e-09
0.0678738
-6.76326e-06
-3.38176e-09
0.0678734
-5.26703e-06
-7.12611e-09
0.0678727
-1.66196e-06
-8.22771e-09
0.067872
2.48053e-06
-6.19268e-09
0.0678716
5.55178e-06
-1.67855e-09
0.0678716
6.49408e-06
3.5664e-09
0.0678721
5.04047e-06
7.35527e-09
0.0678728
1.76402e-06
8.16918e-09
-2.16788e-06
5.79767e-09
0.068995
-5.59594e-06
2.01872e-09
0.0689946
-6.42225e-06
-3.38881e-09
0.068994
-4.61735e-06
-7.77893e-09
0.0689933
-9.69076e-07
-9.24593e-09
0.0689928
2.9621e-06
-7.16462e-09
0.0689927
5.6543e-06
-2.23529e-09
0.068993
6.18088e-06
3.60039e-09
0.0689936
4.42263e-06
7.96586e-09
0.0689943
1.06968e-06
9.12844e-09
-2.68638e-06
6.75871e-09
0.06993
-5.40704e-06
2.5471e-09
0.0699294
-5.81925e-06
-3.42042e-09
0.0699286
-3.86079e-06
-8.3938e-09
0.069928
-3.646e-07
-1.01845e-08
0.0699278
3.19671e-06
-8.05147e-09
0.069928
5.44724e-06
-2.74168e-09
0.0699286
5.61285e-06
3.65871e-09
0.0699293
3.69977e-06
8.55353e-09
0.0699299
4.57705e-07
1.00244e-08
-2.96388e-06
7.63616e-09
0.070692
-4.89355e-06
2.99196e-09
0.0706911
-4.98937e-06
-3.48968e-09
0.0706903
-3.0641e-06
-8.9558e-09
0.0706899
7.95568e-08
-1.10171e-08
0.07069
3.13385e-06
-8.82243e-09
0.0706905
4.91969e-06
-3.16352e-09
0.0706913
4.82278e-06
3.74019e-09
0.070692
2.93665e-06
9.09758e-09
0.0706925
5.35551e-10
1.08255e-08
-2.94717e-06
8.4e-09
0.0712881
-4.05801e-06
3.32404e-09
0.0712871
-3.96887e-06
-3.57388e-09
0.0712863
-2.28126e-06
-9.44841e-09
0.0712861
3.13033e-07
-1.17154e-08
0.0712865
2.74515e-06
-9.4539e-09
0.0712873
4.07526e-06
-3.4827e-09
0.0712883
3.84487e-06
3.83585e-09
0.0712891
2.18554e-06
9.57335e-09
0.0712893
-2.51168e-07
1.15011e-08
-2.60554e-06
9.02547e-09
0.0717244
-2.92665e-06
3.56475e-09
0.0717232
-2.79417e-06
-3.67053e-09
0.0717225
-1.54303e-06
-9.84282e-09
0.0717225
3.22739e-07
-1.22558e-08
0.0717232
2.03948e-06
-9.93129e-09
0.0717243
2.94085e-06
-3.71501e-09
0.0717255
2.71387e-06
3.93033e-09
0.0717262
1.4761e-06
9.95588e-09
0.0717262
-2.84005e-07
1.20262e-08
-1.94603e-06
9.49789e-09
0.0720081
-1.56007e-06
3.71766e-09
0.0720068
-1.50455e-06
-3.74798e-09
0.0720061
-8.51485e-07
-1.01172e-08
0.0720063
1.44317e-07
-1.26235e-08
0.0720073
1.07611e-06
-1.02504e-08
0.0720086
1.57665e-06
-3.86346e-09
0.0720099
1.46804e-06
4.0056e-09
0.0720105
8.10251e-07
1.02244e-08
0.0720104
-1.32837e-07
1.23848e-08
-1.02708e-06
9.81301e-09
0.0721472
-5.56812e-08
3.79417e-09
0.0721458
-1.45958e-07
-3.79083e-09
0.0721451
-1.84182e-07
-1.02582e-08
0.0721454
-1.40895e-07
-1.28122e-08
0.0721465
-3.59131e-08
-1.04145e-08
0.072148
7.80928e-08
-3.93887e-09
0.0721494
1.53052e-07
4.04623e-09
0.07215
1.66615e-07
1.03642e-08
0.0721497
1.22559e-07
1.25699e-08
4.18236e-08
9.97363e-09
0.0721472
1.46405e-06
3.80239e-09
0.0721458
1.22879e-06
-3.79055e-09
0.0721451
4.94024e-07
-1.0259e-08
0.0721454
-4.24499e-07
-1.28202e-08
0.0721465
-1.15618e-06
-1.04273e-08
0.072148
-1.43541e-06
-3.94902e-09
0.0721494
-1.17792e-06
4.04323e-09
0.07215
-4.88038e-07
1.03688e-08
0.0721498
3.7595e-07
1.2579e-08
1.11893e-06
9.98339e-09
0.0720081
2.87362e-06
3.7425e-09
0.0720068
2.56428e-06
-3.74633e-09
0.0720061
1.21696e-06
-1.01186e-08
0.0720062
-5.97701e-07
-1.26465e-08
0.0720072
-2.14231e-06
-1.02885e-08
0.0720086
-2.8416e-06
-3.89403e-09
0.0720099
-2.46907e-06
3.99583e-09
0.0720106
-1.18549e-06
1.0237e-08
0.0720105
5.20796e-07
1.2411e-08
2.06038e-06
9.84148e-09
0.0717245
4.06747e-06
3.60658e-09
0.0717232
3.80754e-06
-3.6651e-09
0.0717224
2.00355e-06
-9.84175e-09
0.0717224
-5.77991e-07
-1.2291e-08
0.0717231
-2.87978e-06
-9.99301e-09
0.0717243
-4.03726e-06
-3.76607e-09
0.0717255
-3.66755e-06
3.91173e-09
0.0717263
-1.94329e-06
9.97342e-09
0.0717263
4.76387e-07
1.20654e-08
2.75096e-06
9.54258e-09
0.0712882
4.97418e-06
3.38272e-09
0.0712871
4.90997e-06
-3.56117e-09
0.0712862
2.84715e-06
-9.44064e-09
0.071286
-3.28003e-07
-1.17588e-08
0.0712864
-3.30194e-06
-9.53666e-09
0.0712873
-4.95189e-06
-3.5535e-09
0.0712884
-4.72569e-06
3.80587e-09
0.0712892
-2.75459e-06
9.59005e-09
0.0712895
2.06453e-07
1.15471e-08
3.12457e-06
9.08208e-09
0.070692
5.55699e-06
3.06316e-09
0.0706911
5.82585e-06
-3.45295e-09
0.0706902
3.71235e-06
-8.93563e-09
0.0706898
1.40808e-07
-1.10639e-08
0.0706899
-3.39269e-06
-8.92248e-09
0.0706905
-5.54845e-06
-3.24825e-09
0.0706913
-5.59951e-06
3.69677e-09
0.0706922
-3.58488e-06
9.10742e-09
0.0706926
-2.76929e-07
1.08705e-08
3.16681e-06
8.4627e-09
0.0699301
5.80508e-06
2.6441e-09
0.0699294
6.51108e-06
-3.35764e-09
0.0699286
4.54088e-06
-8.35162e-09
0.0699279
7.7884e-07
-1.02297e-08
0.0699277
-3.17495e-06
-8.16429e-09
0.069928
-5.81529e-06
-2.85037e-09
0.0699286
-6.24716e-06
3.60133e-09
0.0699294
-4.37747e-06
8.55118e-09
0.06993
-9.23584e-07
1.00603e-08
2.90307e-06
7.69765e-09
0.0689951
5.7249e-06
2.12009e-09
0.0689946
6.92438e-06
-3.28642e-09
0.0689939
5.26182e-06
-7.71316e-09
0.0689932
1.51358e-06
-9.28583e-09
0.0689927
-2.69621e-06
-7.28495e-09
0.0689927
-5.75789e-06
-2.35061e-09
0.068993
-6.63e-06
3.53052e-09
0.0689937
-5.06349e-06
7.94712e-09
0.0689945
-1.6602e-06
9.14931e-09
2.38372e-06
6.811e-09
0.067874
5.33656e-06
1.53165e-09
0.0678739
7.03072e-06
-3.24207e-09
0.0678733
5.8006e-06
-7.03979e-09
0.0678726
2.26075e-06
-8.26889e-09
0.0678719
-2.01938e-06
-6.3149e-09
0.0678716
-5.39526e-06
-1.80033e-09
0.0678716
-6.71597e-06
3.48766e-09
0.0678722
-5.57089e-06
7.31733e-09
0.0678729
-2.40148e-06
8.1654e-09
1.67508e-06
5.83323e-09
0.0665425
4.67519e-06
8.91918e-10
0.0665427
6.80558e-06
-3.21841e-09
0.0665424
6.08478e-06
-6.34415e-09
0.0665418
2.92953e-06
-7.19521e-09
0.066541
-1.22011e-06
-5.28739e-09
0.0665403
-4.76089e-06
-1.18199e-09
0.0665401
-6.48373e-06
3.46818e-09
0.0665404
-5.83053e-06
6.67803e-09
0.066541
-3.05581e-06
7.13769e-09
8.56783e-07
4.79816e-09
0.064957
3.79469e-06
2.10525e-10
0.0649576
6.23966e-06
-3.20019e-09
0.0649576
6.04805e-06
-5.63085e-09
0.0649571
3.42442e-06
-6.10046e-09
0.0649563
-3.87775e-07
-4.23916e-09
0.0649555
-3.90606e-06
-5.58472e-10
0.0649549
-5.92726e-06
3.46002e-09
0.0649549
-5.78021e-06
6.03861e-09
0.0649553
-3.52741e-06
6.1003e-09
2.27541e-08
3.74085e-09
0.0630409
2.77302e-06
-4.50526e-10
0.0630418
5.34438e-06
-3.16201e-09
0.0630422
5.63391e-06
-4.89551e-09
0.063042
3.64587e-06
-4.99902e-09
0.0630412
3.71868e-07
-3.20413e-09
0.0630402
-2.90482e-06
6.93713e-11
0.0630394
-5.06104e-06
3.44305e-09
0.063039
-5.3685e-06
5.40039e-09
0.0630391
-3.71746e-06
5.07119e-09
-7.16299e-07
2.69888e-09
0.0606539
1.7189e-06
-1.04496e-09
0.0606551
4.15934e-06
-3.06541e-09
0.0606559
4.80092e-06
-4.12273e-09
0.0606561
3.49102e-06
-3.91097e-09
0.0606555
9.3254e-07
-2.18746e-09
0.0606545
-1.86129e-06
6.2529e-10
0.0606534
-3.92719e-06
3.38718e-09
0.0606526
-4.55924e-06
4.75466e-09
0.0606524
-3.5249e-06
4.06826e-09
-1.22923e-06
1.70452e-09
0.0575151
7.8442e-07
-1.51754e-09
0.0575165
2.76497e-06
-2.85238e-09
0.0575178
3.53274e-06
-3.28291e-09
0.0575184
2.85644e-06
-2.85097e-09
0.0575182
1.14e-06
-1.30238e-09
0.0575173
-9.24762e-07
1.06677e-09
0.0575159
-2.61086e-06
3.24659e-09
0.0575147
-3.34012e-06
4.07749e-09
0.057514
-2.84612e-06
3.09569e-09
-1.356e-06
8.06476e-10
0.0529597
1.97871e-07
-1.77791e-09
0.0529612
1.31456e-06
-2.43361e-09
0.0529629
1.8699e-06
-2.32956e-09
0.0529641
1.65559e-06
-1.83159e-09
0.0529644
7.97599e-07
-5.80134e-10
0.0529638
-3.37173e-07
1.32209e-09
0.0529625
-1.29287e-06
2.94367e-09
0.0529609
-1.75251e-06
3.31583e-09
0.0529596
-1.5724e-06
2.1549e-09
-8.80161e-07
5.85636e-11
0.044642
-1.63994e-09
0.0446433
-1.65836e-09
0.0446452
-1.19876e-09
0.0446469
-8.70702e-10
0.0446477
-9.96298e-11
0.0446473
1.24281e-09
0.044646
2.28603e-09
0.0446443
2.31486e-09
0.0446427
1.20356e-09
-4.46024e-10
0.0446421
-1.39456e-07
-4.58159e-10
0.0446433
-1.21949e-06
-1.08467e-09
0.0446451
-1.78452e-06
-1.249e-09
0.0446467
-1.61137e-06
-1.53775e-09
0.0446476
-8.08968e-07
-1.17262e-09
0.0446473
2.77391e-07
1.44516e-10
0.0446461
1.20792e-06
1.5535e-09
0.0446444
1.67165e-06
2.36873e-09
0.0446429
1.52515e-06
2.08231e-09
8.81916e-07
9.16827e-10
0.0529598
-6.58177e-07
-5.7265e-10
0.0529611
-2.58909e-06
-1.74194e-09
0.0529627
-3.38999e-06
-2.22864e-09
0.0529639
-2.79654e-06
-2.33027e-09
0.0529643
-1.1757e-06
-1.53723e-09
0.0529638
8.09289e-07
2.24164e-10
0.0529625
2.45407e-06
2.10098e-09
0.052961
3.19705e-06
3.13775e-09
0.0529598
2.77009e-06
2.78937e-09
1.37946e-06
1.29075e-09
0.0575151
-1.52832e-06
-4.9448e-10
0.0575164
-3.92757e-06
-2.15918e-09
0.0575177
-4.63462e-06
-3.01545e-09
0.0575183
-3.44542e-06
-3.0602e-09
0.0575181
-1.01047e-06
-1.97037e-09
0.0575173
1.69113e-06
1.63852e-10
0.057516
3.72028e-06
2.4133e-09
0.0575148
4.3879e-06
3.69583e-09
0.0575141
3.45349e-06
3.39577e-09
1.29422e-06
1.72311e-09
0.0606539
-2.53084e-06
-3.07888e-10
0.060655
-5.08395e-06
-2.42695e-09
0.0606559
-5.4734e-06
-3.66717e-09
0.060656
-3.63488e-06
-3.75632e-09
0.0606555
-4.97252e-07
-2.45158e-09
0.0606545
2.69145e-06
1.3111e-11
0.0606534
4.82867e-06
2.61326e-09
0.0606526
5.19773e-06
4.17034e-09
0.0606524
3.6732e-06
3.97807e-09
8.29962e-07
2.20224e-09
0.0630408
-3.51907e-06
-6.08951e-11
0.0630417
-5.97739e-06
-2.60244e-09
0.0630422
-5.91715e-06
-4.22418e-09
0.063042
-3.46009e-06
-4.42174e-09
0.0630413
2.18056e-07
-2.96943e-09
0.0630403
3.66619e-06
-1.83329e-10
0.0630394
5.69411e-06
2.74687e-09
0.063039
5.63374e-06
4.59889e-09
0.0630391
3.52443e-06
4.55034e-09
1.37855e-07
2.70423e-09
0.0649569
-4.38695e-06
2.1214e-10
0.0649575
-6.56618e-06
-2.7233e-09
0.0649576
-6.00169e-06
-4.71399e-09
0.0649572
-3.01704e-06
-5.05628e-09
0.0649564
1.01494e-06
-3.50183e-09
0.0649555
4.51385e-06
-4.37553e-10
0.0649549
6.27284e-06
2.83937e-09
0.0649548
5.72682e-06
4.99749e-09
0.0649553
3.10126e-06
5.11264e-09
-6.57226e-07
3.22468e-09
0.0665424
-5.05732e-06
5.11782e-10
0.0665427
-6.83567e-06
-2.81443e-09
0.0665424
-5.77806e-06
-5.15351e-09
0.0665418
-2.39973e-06
-5.65832e-09
0.066541
1.79142e-06
-4.0297e-09
0.0665404
5.1612e-06
-7.20242e-10
0.0665401
6.5477e-06
2.90695e-09
0.0665403
5.52324e-06
5.37269e-09
0.0665409
2.49664e-06
5.6598e-09
-1.44885e-06
3.74367e-09
0.0678739
-5.47538e-06
7.96087e-10
0.0678739
-6.79126e-06
-2.89239e-09
0.0678734
-5.30748e-06
-5.55257e-09
0.0678727
-1.69932e-06
-6.22205e-09
0.067872
2.46027e-06
-4.53863e-09
0.0678716
5.55615e-06
-1.00544e-09
0.0678716
6.52126e-06
2.96069e-09
0.0678721
5.08024e-06
5.72588e-09
0.0678728
1.8017e-06
6.18302e-09
-2.14562e-06
4.24461e-09
0.068995
-5.60372e-06
1.08209e-09
0.0689946
-6.45293e-06
-2.96739e-09
0.068994
-4.65767e-06
-5.91588e-09
0.0689933
-1.00355e-06
-6.74016e-09
0.0689928
2.94634e-06
-5.01266e-09
0.0689927
5.66308e-06
-1.26871e-09
0.068993
6.21078e-06
3.00821e-09
0.0689936
4.46241e-06
6.05501e-09
0.0689943
1.10463e-06
6.67188e-09
-2.66877e-06
4.7131e-09
0.06993
-5.4182e-06
1.32312e-09
0.0699294
-5.85048e-06
-3.03131e-09
0.0699286
-3.89892e-06
-6.24279e-09
0.069928
-3.94976e-07
-7.20434e-09
0.0699278
3.18536e-06
-5.4385e-09
0.069928
5.45911e-06
-1.4917e-09
0.0699286
5.64343e-06
3.05423e-09
0.0699293
3.73755e-06
6.35553e-09
0.0699299
4.88668e-07
7.11466e-09
-2.9509e-06
5.13391e-09
0.070692
-4.9063e-06
1.51818e-09
0.0706912
-5.01874e-06
-3.08594e-09
0.0706903
-3.09802e-06
-6.5241e-09
0.0706899
5.41545e-08
-7.60496e-09
0.07069
3.12636e-06
-5.80355e-09
0.0706905
4.93288e-06
-1.69117e-09
0.0706913
4.85171e-06
3.10067e-09
0.070692
2.97043e-06
6.6211e-09
0.0706925
2.65916e-08
7.49952e-09
-2.93832e-06
5.49439e-09
0.0712882
-4.07025e-06
1.68039e-09
0.0712871
-3.99391e-06
-3.11631e-09
0.0712863
-2.30908e-06
-6.75338e-09
0.0712861
2.93199e-07
-7.93324e-09
0.0712865
2.74061e-06
-6.09836e-09
0.0712873
4.08771e-06
-1.84634e-09
0.0712883
3.8697e-06
3.1465e-09
0.0712891
2.21342e-06
6.84445e-09
0.0712893
-2.30664e-07
7.81591e-09
-2.59994e-06
5.78526e-09
0.0717244
-2.93626e-06
1.79306e-09
0.0717233
-2.81252e-06
-3.13261e-09
0.0717225
-1.56305e-06
-6.92566e-09
0.0717225
3.08863e-07
-8.18231e-09
0.0717232
2.03682e-06
-6.31819e-09
0.0717243
2.95047e-06
-1.95569e-09
0.0717255
2.73225e-06
3.18805e-09
0.0717262
1.49634e-06
7.01861e-09
0.0717262
-2.69489e-07
8.05639e-09
-1.94262e-06
6.00141e-09
0.0720081
-1.56527e-06
1.86354e-09
0.0720068
-1.51431e-06
-3.13082e-09
0.0720061
-8.62347e-07
-7.04167e-09
0.0720063
1.36663e-07
-8.34944e-09
0.0720072
1.07441e-06
-6.46319e-09
0.0720086
1.58168e-06
-2.02467e-09
0.0720099
1.47804e-06
3.22019e-09
0.0720105
8.21488e-07
7.13823e-09
0.0720104
-1.24611e-07
8.21767e-09
-1.02497e-06
6.14308e-09
0.0721472
-5.54286e-08
1.89785e-09
0.0721458
-1.46002e-07
-3.12055e-09
0.0721451
-1.85079e-07
-7.09881e-09
0.0721454
-1.42141e-07
-8.43447e-09
0.0721465
-3.71555e-08
-6.5366e-09
0.072148
7.75249e-08
-2.05867e-09
0.0721494
1.53541e-07
3.23809e-09
0.07215
1.68017e-07
7.20035e-09
0.0721498
1.24287e-07
8.29972e-09
4.3147e-08
6.21358e-09
0.0721472
1.46982e-06
1.89981e-09
0.0721458
1.23857e-06
-3.09894e-09
0.0721451
5.03244e-07
-7.09511e-09
0.0721454
-4.19223e-07
-8.43843e-09
0.0721465
-1.15694e-06
-6.54137e-09
0.072148
-1.44164e-06
-2.06144e-09
0.0721494
-1.18708e-06
3.23878e-09
0.07215
-4.96624e-07
7.20366e-09
0.0721498
3.71062e-07
8.30349e-09
1.11943e-06
6.21582e-09
0.0720081
2.88397e-06
1.86955e-09
0.0720068
2.58295e-06
-3.06441e-09
0.072006
1.23576e-06
-7.02998e-09
0.0720062
-5.85874e-07
-8.36125e-09
0.0720072
-2.14201e-06
-6.47759e-09
0.0720086
-2.85258e-06
-2.0331e-09
0.0720099
-2.48697e-06
3.22204e-09
0.0720106
-1.20351e-06
7.1479e-09
0.0720105
5.09282e-07
8.22861e-09
2.05949e-06
6.1496e-09
0.0717245
4.08069e-06
1.80347e-09
0.0717232
3.83332e-06
-3.01801e-09
0.0717224
2.03079e-06
-6.90437e-09
0.0717224
-5.59703e-07
-8.20181e-09
0.0717231
-2.87744e-06
-6.34225e-09
0.0717243
-4.05131e-06
-1.97005e-09
0.0717255
-3.69245e-06
3.19046e-09
0.0717263
-1.96959e-06
7.03385e-09
0.0717263
4.58372e-07
8.07351e-09
2.74769e-06
6.0116e-09
0.0712882
4.98813e-06
1.69579e-09
0.0712871
4.94054e-06
-2.96331e-09
0.0712862
2.88125e-06
-6.72084e-09
0.071286
-3.03522e-07
-7.95986e-09
0.0712864
-3.29644e-06
-6.13199e-09
0.0712873
-4.96692e-06
-1.8669e-09
0.0712884
-4.7553e-06
3.14881e-09
0.0712892
-2.78757e-06
6.86371e-09
0.0712895
1.82254e-07
7.8374e-09
3.11781e-06
5.79802e-09
0.070692
5.56951e-06
1.53796e-09
0.0706911
5.85869e-06
-2.90503e-09
0.0706903
3.75144e-06
-6.48484e-09
0.0706898
1.70957e-07
-7.63852e-09
0.0706899
-3.38303e-06
-5.84639e-09
0.0706905
-5.56234e-06
-1.71851e-09
0.0706913
-5.63136e-06
3.10249e-09
0.0706922
-3.62265e-06
6.6426e-09
0.0706927
-3.06733e-07
7.52304e-09
3.1556e-06
5.50803e-09
0.0699301
5.81429e-06
1.34739e-09
0.0699294
6.54372e-06
-2.84697e-09
0.0699286
4.58291e-06
-6.20338e-09
0.0699279
8.13799e-07
-7.24497e-09
0.0699277
-3.16051e-06
-5.48994e-09
0.069928
-5.82617e-06
-1.52234e-09
0.0699286
-6.27885e-06
3.05578e-09
0.0699294
-4.418e-06
6.37766e-09
0.0699301
-9.58084e-07
7.13745e-09
2.88682e-06
5.14625e-09
0.0689951
5.72936e-06
1.11309e-09
0.0689947
6.95458e-06
-2.79033e-09
0.0689939
5.30464e-06
-5.88286e-09
0.0689932
1.55212e-06
-6.78929e-09
0.0689927
-2.67685e-06
-5.0718e-09
0.0689926
-5.76433e-06
-1.30142e-09
0.068993
-6.65934e-06
3.01051e-09
0.0689937
-5.10465e-06
6.07646e-09
0.0689945
-1.69812e-06
6.691e-09
2.36236e-06
4.7215e-09
0.067874
5.33547e-06
8.30262e-10
0.0678739
7.05658e-06
-2.73296e-09
0.0678734
5.84204e-06
-5.52835e-09
0.0678726
2.30127e-06
-6.28194e-09
0.0678719
-1.99553e-06
-4.60481e-09
0.0678716
-5.39641e-06
-1.04054e-09
0.0678716
-6.74112e-06
2.96561e-09
0.0678721
-5.61057e-06
5.74571e-09
0.0678729
-2.4412e-06
6.19482e-09
1.64913e-06
4.24588e-09
0.0665425
4.66837e-06
5.53014e-10
0.0665427
6.82564e-06
-2.66918e-09
0.0665425
6.12274e-06
-5.14244e-09
0.0665418
2.97012e-06
-5.73392e-09
0.066541
-1.19276e-06
-4.10189e-09
0.0665403
-4.7565e-06
-7.47494e-10
0.0665401
-6.50331e-06
2.91707e-09
0.0665404
-5.8667e-06
5.39014e-09
0.066541
-3.09542e-06
5.66379e-09
8.27362e-07
3.73491e-09
0.064957
3.78273e-06
2.39336e-10
0.0649576
6.25306e-06
-2.58941e-09
0.0649577
6.08062e-06
-4.72424e-09
0.0649572
3.46293e-06
-5.15315e-09
0.0649563
-3.58509e-07
-3.57892e-09
0.0649555
-3.89661e-06
-4.63034e-10
0.0649549
-5.94044e-06
2.85772e-09
0.0649548
-5.8111e-06
5.01174e-09
0.0649553
-3.56478e-06
5.10344e-09
-8.43274e-09
3.20321e-09
0.0630409
2.75722e-06
-8.02723e-12
0.0630418
5.351e-06
-2.47927e-09
0.0630422
5.65957e-06
-4.26879e-09
0.063042
3.68002e-06
-4.54791e-09
0.0630412
4.00914e-07
-3.04885e-09
0.0630402
-2.89153e-06
-1.8867e-10
0.0630394
-5.06773e-06
2.7765e-09
0.063039
-5.3927e-06
4.60883e-09
0.0630391
-3.7504e-06
4.52523e-09
-7.46981e-07
2.6675e-09
0.0606539
1.70155e-06
-2.42638e-10
0.0606551
4.16002e-06
-2.31738e-09
0.0606559
4.81876e-06
-3.76497e-09
0.0606561
3.51859e-06
-3.92236e-09
0.0606556
9.58787e-07
-2.5306e-09
0.0606545
-1.84615e-06
2.76159e-11
0.0606534
-3.92819e-06
2.65661e-09
0.0606526
-4.57598e-06
4.17419e-09
0.0606524
-3.5513e-06
3.93549e-09
-1.25665e-06
2.14273e-09
0.0575151
7.68879e-07
-4.11425e-10
0.0575165
2.76174e-06
-2.07107e-09
0.0575178
3.54278e-06
-3.19195e-09
0.0575184