/*--------------------------------*- C++ -*----------------------------------*\
| =========                 |                                                 |
| \\      /  F ield         | OpenFOAM: The Open Source CFD Toolbox           |
|  \\    /   O peration     | Version:  2.3.0                                 |
|   \\  /    A nd           | Web:      www.OpenFOAM.org                      |
|    \\/     M anipulation  |                                                 |
\*---------------------------------------------------------------------------*/
FoamFile
{
    version     2.0;
    format      ascii;
    class       volSymmTensorField;
    location    "400";
    object      R;
}
// * * * * * * * * * * * * * * * * * * * * * * * * * * * * * * * * * * * * * //

dimensions      [0 2 -2 0 0 0 0];

internalField   nonuniform List<symmTensor> 
3000
(
(0.00549975 -0.00792496 3.80041e-13 0.00549976 9.89517e-11 0.00549975)
(0.00549982 -0.00792508 3.59959e-10 0.00549985 9.3072e-11 0.00549983)
(0.00550018 -0.00792559 3.59811e-10 0.00550022 5.39039e-11 0.0055002)
(0.00550067 -0.00792619 3.60101e-10 0.0055007 2.22129e-11 0.00550069)
(0.00550113 -0.00792672 -9.36394e-13 0.00550114 -1.23186e-11 0.00550113)
(0.00550136 -0.00792696 -9.80555e-13 0.00550136 -6.33478e-11 0.00550136)
(0.0055013 -0.00792684 -3.61189e-10 0.00550128 -1.06547e-10 0.00550129)
(0.00550097 -0.0079264 -3.59956e-10 0.00550094 -1.03616e-10 0.00550095)
(0.00550048 -0.00792579 -3.59015e-10 0.00550045 -4.68083e-11 0.00550047)
(0.00550003 -0.00792525 -3.59157e-10 0.00550001 4.05428e-11 0.00550002)
(0.00520709 -0.00242191 8.38542e-10 0.00520711 -4.61899e-11 0.0052071)
(0.00520652 -0.00242141 8.35177e-10 0.00520657 2.43113e-11 0.00520655)
(0.00520665 -0.00242127 8.33857e-10 0.00520672 8.54529e-11 0.00520669)
(0.00520745 -0.00242152 8.33685e-10 0.00520749 1.00861e-10 0.00520747)
(0.00520866 -0.00242213 -3.17793e-12 0.00520867 8.14312e-11 0.00520867)
(0.00520984 -0.00242289 -8.40151e-10 0.00520982 4.15693e-11 0.00520983)
(0.00521053 -0.00242349 -8.38627e-10 0.00521048 -1.36168e-11 0.0052105)
(0.00521043 -0.00242367 -8.35338e-10 0.00521037 -6.68254e-11 0.0052104)
(0.00520959 -0.00242337 -8.3219e-10 0.00520955 -9.65354e-11 0.00520957)
(0.00520836 -0.00242271 -8.31481e-10 0.00520834 -8.77122e-11 0.00520835)
(0.00468165 -0.00212946 5.46711e-12 0.0046817 -1.28734e-10 0.00468167)
(0.00468101 -0.00212885 1.23106e-09 0.00468108 -1.14063e-11 0.00468105)
(0.00468128 -0.00212868 1.22826e-09 0.00468135 1.1347e-10 0.00468131)
(0.00468237 -0.00212908 -3.43912e-12 0.00468241 1.76177e-10 0.00468239)
(0.00468389 -0.00212989 -5.66517e-12 0.00468388 1.72779e-10 0.00468389)
(0.00468527 -0.00213079 -6.75678e-12 0.00468522 1.14472e-10 0.00468525)
(0.00468598 -0.00213145 -4.49243e-12 0.00468591 2.06566e-11 0.00468595)
(0.00468575 -0.00213161 -1.23104e-09 0.00468568 -8.3037e-11 0.00468571)
(0.00468467 -0.00213124 -1.22526e-09 0.00468463 -1.59181e-10 0.00468465)
(0.00468316 -0.00213047 8.1067e-12 0.00468316 -1.79419e-10 0.00468316)
(0.00424362 -0.00193398 1.56485e-09 0.00424369 -2.02497e-10 0.00424365)
(0.00424306 -0.00193315 5.30499e-12 0.00424314 -4.07125e-11 0.0042431)
(0.00424352 -0.00193303 1.00006e-12 0.00424358 1.4296e-10 0.00424355)
(0.00424484 -0.00193375 -3.41813e-12 0.00424485 2.52706e-10 0.00424485)
(0.00424653 -0.00193472 -8.09842e-12 0.00424649 2.57098e-10 0.00424651)
(0.00424796 -0.00193567 -1.08386e-11 0.00424789 1.82218e-10 0.00424793)
(0.00424859 -0.00193655 -8.61814e-12 0.00424851 4.43424e-11 0.00424855)
(0.00424818 -0.0019367 -1.75696e-12 0.00424812 -1.10504e-10 0.00424815)
(0.00424688 -0.001936 1.56384e-09 0.00424687 -2.27822e-10 0.00424687)
(0.0042452 -0.00193508 1.06946e-11 0.00424523 -2.7188e-10 0.00424521)
(0.00385098 -0.00175472 1.39415e-11 0.00385106 -2.57271e-10 0.00385102)
(0.00385058 -0.00175398 1.06518e-11 0.00385064 -5.47296e-11 0.00385061)
(0.00385121 -0.00175411 4.9956e-12 0.00385125 1.76476e-10 0.00385123)
(0.00385268 -0.00175464 -2.51858e-12 0.00385267 3.22205e-10 0.00385268)
(0.00385445 -0.00175581 -1.03568e-11 0.00385438 3.29381e-10 0.00385441)
(0.00385582 -0.00175711 -1.53585e-11 0.00385574 2.33803e-10 0.00385578)
(0.00385629 -0.0017579 -1.3853e-11 0.00385623 5.35449e-11 0.00385627)
(0.00385571 -0.00175783 -5.60437e-12 0.00385567 -1.45789e-10 0.00385569)
(0.00385426 -0.00175704 5.23631e-12 0.00385427 -2.93997e-10 0.00385426)
(0.00385248 -0.00175614 1.2794e-11 0.00385255 -3.45664e-10 0.00385252)
(0.00348611 -0.00158178 1.87977e-11 0.00348618 -2.8811e-10 0.00348614)
(0.00348586 -0.00158141 1.69445e-11 0.00348592 -5.20062e-11 0.00348589)
(0.00348668 -0.00158158 1.00826e-11 0.00348668 2.11883e-10 0.00348668)
(0.00348824 -0.00158214 -2.00923e-08 0.00348819 3.78464e-10 0.00348821)
(0.00348995 -0.00158351 -1.24312e-11 0.00348988 3.91702e-10 0.00348992)
(0.00349121 -0.00158465 -2.03503e-11 0.00349114 2.64607e-10 0.00349118)
(0.00349154 -0.00158539 -1.98998e-11 0.00349148 4.77393e-11 0.00349151)
(0.00349078 -0.00158527 -1.04326e-11 0.00349076 -1.84543e-10 0.00349077)
(0.00348922 -0.00158445 3.38438e-12 0.00348927 -3.50522e-10 0.00348925)
(0.00348747 -0.00158334 1.45476e-11 0.00348755 -3.94176e-10 0.00348751)
(0.00314232 -0.00141167 2.38585e-11 0.00314239 -2.95452e-10 0.00314235)
(0.00314226 -0.00141144 2.37506e-11 0.00314229 -3.53685e-11 0.00314228)
(0.0031432 -0.00141141 1.5765e-11 0.00314317 2.45003e-10 0.00314319)
(0.00314477 -0.00141257 1.42445e-12 0.00314471 4.1743e-10 0.00314474)
(0.00314642 -0.00141391 -1.43868e-11 0.00314633 4.2272e-10 0.00314637)
(0.00314751 -0.00141492 -2.55707e-11 0.00314744 2.7283e-10 0.00314747)
(0.00314762 -0.00141553 -2.6403e-11 0.00314761 2.97048e-11 0.00314762)
(0.00314676 -0.00141531 -1.58115e-11 0.00314677 -2.21608e-10 0.00314676)
(0.00314517 -0.00141446 1.0654e-12 0.00314524 -3.91265e-10 0.00314521)
(0.0031435 -0.0014128 1.61072e-11 0.00314359 -4.23533e-10 0.00314355)
(0.00281837 -0.00124318 2.89808e-11 0.00281843 -2.81582e-10 0.00281841)
(0.00281849 -0.00124247 3.06784e-11 0.00281849 -9.63723e-12 0.00281849)
(0.00281952 -0.00124313 2.15942e-11 0.00281946 2.71455e-10 0.00281949)
(0.00282105 -0.00124397 3.75384e-12 0.00282098 4.36725e-10 0.00282101)
(0.00282255 -0.0012452 -1.62972e-11 0.00282248 4.28202e-10 0.00282251)
(0.00282344 -0.00124669 -3.08431e-11 0.00282341 2.61127e-10 0.00282343)
(0.00282341 -0.00124685 -3.30265e-11 0.00282342 3.69864e-12 0.00282341)
(0.00282244 -0.00124656 -2.13328e-11 0.00282248 -2.51967e-10 0.00282246)
(0.00282089 -0.00124572 -1.38809e-12 0.00282096 -4.13684e-10 0.00282093)
(0.00281937 -0.00124415 1.76081e-11 0.00281944 -4.29166e-10 0.0028194)
(0.00251649 -0.00107565 3.40415e-11 0.0025165 -2.51166e-10 0.00251649)
(0.00251674 -0.00107505 -2.32081e-08 0.00251671 1.97586e-11 0.00251673)
(0.00251779 -0.00107574 2.72172e-11 0.00251772 2.87348e-10 0.00251776)
(0.00251926 -0.00107683 5.9608e-12 0.00251917 4.35471e-10 0.00251921)
(0.00252056 -0.00107791 -1.82264e-11 0.00252051 4.10993e-10 0.00252054)
(0.00252125 -0.00107891 -3.60347e-11 0.00252125 2.33519e-10 0.00252125)
(0.00252107 -0.00107926 -3.94916e-11 0.0025211 -2.52426e-11 0.00252109)
(0.00252005 -0.00107893 -2.6679e-11 0.00252011 -2.71461e-10 0.00252008)
(0.00251859 -0.00107784 -3.70967e-12 0.00251866 -4.16115e-10 0.00251862)
(0.00251723 -0.00107673 1.91646e-11 0.00251729 -4.11975e-10 0.00251726)
(0.00224137 -0.000908475 3.89555e-11 0.00224134 -2.09864e-10 0.00224135)
(0.00224175 -0.000908641 4.37854e-11 0.00224168 4.73979e-11 0.00224171)
(0.00224279 -0.000908993 3.2415e-11 0.00224271 2.89644e-10 0.00224275)
(0.00224412 -0.000910295 7.87914e-12 0.00224405 4.13664e-10 0.00224409)
(0.00224524 -0.000911187 -2.02241e-11 0.00224521 3.74394e-10 0.00224522)
(0.00224572 -0.000912012 -4.10626e-11 0.00224575 1.95181e-10 0.00224573)
(0.00224539 -0.000912243 -4.562e-11 0.00224546 -5.2076e-11 0.00224543)
(0.00224438 -0.000911583 -3.16339e-11 0.00224445 -2.76949e-10 0.00224441)
(0.00224302 -0.000910604 -5.72014e-12 0.00224309 -3.97828e-10 0.00224306)
(0.00224188 -0.000909689 2.08395e-11 0.00224191 -3.7521e-10 0.00224189)
(0.00199961 -0.00074287 4.36859e-11 0.00199954 -1.63686e-10 0.00199957)
(0.00200008 -0.000742769 4.96949e-11 0.00199999 6.80098e-11 0.00200004)
(0.0020011 -0.000743411 3.70946e-11 0.00200101 2.76134e-10 0.00200106)
(0.00200229 -0.000744218 9.43779e-12 0.00200223 3.72633e-10 0.00200225)
(0.00200317 -0.000745238 -2.23076e-11 0.00200318 3.22887e-10 0.00200317)
(0.00200344 -0.000745881 -4.58939e-11 0.00200351 1.51904e-10 0.00200348)
(0.00200302 -0.00074603 -5.13379e-11 0.00200311 -7.19258e-11 0.00200306)
(0.00200202 -0.000745405 -3.6106e-11 0.0020021 -2.66139e-10 0.00200205)
(0.00200081 -0.000744591 -7.34223e-12 0.00200087 -3.60209e-10 0.00200085)
(0.00199989 -0.000743547 2.26613e-11 0.00199989 -3.23455e-10 0.00199989)
(0.00179844 -0.000578254 4.81926e-11 0.00179834 -1.18339e-10 0.00179839)
(0.001799 -0.000578181 5.51235e-11 0.00179889 7.71093e-11 0.00179895)
(0.00179996 -0.000578382 4.12523e-11 0.00179988 2.45193e-10 0.00179993)
(0.00180098 -0.000579005 1.06464e-11 0.00180095 3.14684e-10 0.00180096)
(0.00180165 -0.000580173 -2.44531e-11 0.00180169 2.61133e-10 0.00180167)
(0.00180172 -0.00058066 -5.04953e-11 0.00180183 1.09207e-10 0.00180178)
(0.0018012 -0.000580759 -5.6616e-11 0.00180131 -8.03134e-11 0.00180125)
(0.00180024 -0.000580213 -4.00805e-11 0.00180032 -2.37447e-10 0.00180028)
(0.00179921 -0.00057958 -8.58227e-12 0.00179924 -3.05043e-10 0.00179923)
(0.00179851 -0.000578396 2.45997e-11 0.00179847 -2.61381e-10 0.00179849)
(0.00164406 -0.000413764 5.23119e-11 0.00164394 -7.81803e-11 0.00164401)
(0.00164472 -0.000413675 5.99457e-11 0.00164458 7.14702e-11 0.00164465)
(0.00164564 -0.000414106 4.48433e-11 0.00164554 1.95845e-10 0.00164558)
(0.00164647 -0.000414538 2.56113e-08 0.00164647 2.41494e-10 0.00164647)
(0.00164692 -0.000415172 -2.65338e-11 0.00164702 1.92943e-10 0.00164697)
(0.00164684 -0.000415551 -5.47068e-11 0.00164698 7.15832e-11 0.00164691)
(0.00164624 -0.00041566 -6.1325e-11 0.00164637 -7.40646e-11 0.0016463)
(0.00164532 -0.000415229 -4.35082e-11 0.0016454 -1.90101e-10 0.00164536)
(0.00164445 -0.000414786 -9.49077e-12 0.00164445 -2.34338e-10 0.00164445)
(0.00164396 -0.000414138 2.65225e-11 0.00164388 -1.92837e-10 0.00164392)
(0.00154034 -0.00024875 5.56365e-11 0.00154016 -4.52876e-11 0.00154025)
(0.00154103 -0.00024895 6.37734e-11 0.00154087 5.03965e-11 0.00154095)
(0.00154189 -0.000249225 4.7646e-11 0.0015418 1.28509e-10 0.00154185)
(0.00154262 -0.000249849 1.21908e-11 0.00154263 1.54981e-10 0.00154262)
(0.00154291 -0.000249983 -2.82734e-11 0.00154303 1.20984e-10 0.00154297)
(0.00154267 -0.000249947 -5.81142e-11 0.00154285 4.10879e-11 0.00154277)
(0.00154201 -0.000250128 -6.50747e-11 0.00154217 -5.24246e-11 0.00154209)
(0.00154115 -0.000249851 -4.6177e-11 0.00154123 -1.25088e-10 0.00154119)
(0.00154039 -0.000249592 -1.01118e-11 0.00154038 -1.5026e-10 0.00154039)
(0.00154007 -0.000249078 2.81498e-11 0.00153996 -1.20403e-10 0.00154001)
(0.00148845 -8.29339e-05 5.7553e-11 0.00148827 -1.86128e-11 0.00148837)
(0.00148919 -8.33843e-05 6.5977e-11 0.00148902 1.70034e-11 0.00148911)
(0.00149003 -8.31044e-05 4.92598e-11 0.00148995 4.71649e-11 0.00148999)
(0.00149069 -8.35639e-05 1.25541e-11 0.00149073 5.85251e-11 0.00149071)
(0.00149091 -8.36026e-05 -2.92867e-11 0.00149104 4.6754e-11 0.00149097)
(0.00149059 -8.3582e-05 -6.00901e-11 0.00149079 1.68118e-11 0.00149069)
(0.00148989 -8.35099e-05 -6.72404e-11 0.00149006 -1.84544e-11 0.00148997)
(0.00148904 -8.34131e-05 -4.7707e-11 0.00148912 -4.62582e-11 0.00148908)
(0.00148837 -8.33275e-05 -1.04516e-11 0.00148833 -5.61926e-11 0.00148835)
(0.00148813 -8.3285e-05 -2.65214e-08 0.00148798 -4.56007e-11 0.00148805)
(0.00148846 8.29329e-05 5.75682e-11 0.00148826 5.66334e-12 0.00148836)
(0.00148919 8.33838e-05 6.60388e-11 0.00148902 -2.15244e-11 0.00148911)
(0.00149005 8.31055e-05 4.93419e-11 0.00148997 -3.99705e-11 0.00149001)
(0.0014907 8.35649e-05 1.26151e-11 0.00149074 -4.22872e-11 0.00149072)
(0.00149093 8.36037e-05 -2.92753e-11 0.00149106 -2.87141e-11 0.00149099)
(0.0014906 8.35828e-05 -6.01253e-11 0.0014908 -5.0679e-12 0.0014907)
(0.00148989 8.35101e-05 -6.73018e-11 0.00149006 2.06113e-11 0.00148997)
(0.00148903 8.34119e-05 -4.77718e-11 0.00148911 3.86074e-11 0.00148907)
(0.00148833 8.33255e-05 -1.04994e-11 0.00148831 4.23473e-11 0.00148833)
(0.00148811 8.29077e-05 2.90757e-11 0.00148796 3.04867e-11 0.00148803)
(0.00154031 0.000248737 5.56704e-11 0.00154013 3.25663e-11 0.00154021)
(0.00154102 0.000248944 6.39488e-11 0.00154086 -5.60416e-11 0.00154094)
(0.00154191 0.00024923 4.78851e-11 0.00154183 -1.22998e-10 0.00154187)
(0.00154266 0.000249859 1.23727e-11 0.00154267 -1.40738e-10 0.00154266)
(0.00154295 0.000249995 -2.82331e-11 0.00154308 -1.04356e-10 0.00154301)
(0.00154269 0.000249957 -5.82092e-11 0.00154288 -2.95888e-11 0.00154279)
(0.00154201 0.000250129 -6.52476e-11 0.00154217 5.56075e-11 0.00154209)
(0.00154111 0.00024947 -4.63648e-11 0.00154119 1.19441e-10 0.00154115)
(0.00154034 0.000249575 -1.0255e-11 0.00154033 1.38517e-10 0.00154034)
(0.00154001 0.000249058 2.80718e-11 0.00153989 1.0676e-10 0.00153995)
(0.00164403 0.000413733 5.2336e-11 0.00164388 6.59605e-11 0.00164395)
(0.00164471 0.000413661 6.02093e-11 0.00164456 -7.90072e-11 0.00164463)
(0.00164567 0.000414111 4.52228e-11 0.00164557 -1.93676e-10 0.00164561)
(0.00164653 0.000414564 1.18533e-11 0.00164653 -2.30871e-10 0.00164653)
(0.00164698 0.000415202 -2.64479e-11 0.00164709 -1.7887e-10 0.00164704)
(0.00164688 0.000415574 -5.48332e-11 0.00164703 -6.05777e-11 0.00164695)
(0.00164622 0.00041566 -6.15795e-11 0.00164637 7.90148e-11 0.00164629)
(0.00164527 0.000415213 2.55309e-08 0.00164536 1.8794e-10 0.00164531)
(0.00164437 0.000414749 -9.73e-12 0.00164437 2.26331e-10 0.00164437)
(0.00164387 0.000414091 2.63729e-11 0.00164379 1.81864e-10 0.00164383)
(0.00179836 0.000577843 4.81653e-11 0.00179825 1.06924e-10 0.00179831)
(0.00179898 0.000578156 5.54344e-11 0.00179885 -8.68388e-11 0.00179892)
(0.0018 0.000578391 4.17499e-11 0.00179991 -2.47358e-10 0.00179996)
(0.00180105 0.000579392 1.10669e-11 0.00180102 -3.0859e-10 0.00180103)
(0.00180173 0.00058022 -2.42978e-11 0.00180177 -2.50303e-10 0.00180175)
(0.00180178 0.000580694 -5.0614e-11 0.00180189 -9.90588e-11 0.00180183)
(0.0018012 0.000580767 -5.69133e-11 0.00180132 8.72008e-11 0.00180125)
(0.00180018 0.000580183 -4.04537e-11 0.00180027 2.39396e-10 0.00180022)
(0.0017991 0.000579168 -8.9169e-12 0.00179913 3.01667e-10 0.00179912)
(0.0017984 0.000578675 2.43544e-11 0.00179836 2.53848e-10 0.00179838)
(0.00199951 0.000742791 4.35637e-11 0.00199944 1.53507e-10 0.00199947)
(0.00200005 0.000742727 5.00088e-11 0.00199995 -7.967e-11 0.002)
(0.00200115 0.000743423 3.76857e-11 0.00200104 -2.82518e-10 0.00200109)
(0.00200237 0.000744265 -2.43529e-08 0.00200231 -3.71195e-10 0.00200233)
(0.00200326 0.000745308 -2.20599e-11 0.00200328 -3.15758e-10 0.00200327)
(0.00200352 0.000745936 -4.59652e-11 0.00200359 -1.42979e-10 0.00200355)
(0.00200301 0.000746043 -5.16336e-11 0.00200312 8.04819e-11 0.00200307)
(0.00200194 0.000745373 -3.653e-11 0.00200204 2.72188e-10 0.00200199)
(0.00200072 0.000744515 -7.76933e-12 0.00200076 3.6179e-10 0.00200073)
(0.00199976 0.000743447 2.22945e-11 0.00199976 3.19811e-10 0.00199976)
(0.00224125 0.000908714 3.86966e-11 0.00224122 2.01356e-10 0.00224123)
(0.00224169 0.000908248 4.40608e-11 0.00224161 -6.03424e-11 0.00224165)
(0.0022428 0.000908992 3.30723e-11 0.00224272 -2.99427e-10 0.00224277)
(0.0022442 0.000910011 8.53394e-12 0.00224413 -4.16553e-10 0.00224417)
(0.00224535 0.00091127 -1.98679e-11 0.00224532 -3.70986e-10 0.00224533)
(0.00224581 0.000912087 -4.10499e-11 0.00224584 -1.88001e-10 0.00224583)
(0.00224542 0.000912277 -4.58709e-11 0.00224549 6.1726e-11 0.00224545)
(0.00224432 0.000911893 -3.20745e-11 0.0022444 2.86548e-10 0.00224436)
(0.0022429 0.000910859 -6.23098e-12 0.00224298 4.04726e-10 0.00224294)
(0.00224173 0.000909578 2.03299e-11 0.00224176 3.75575e-10 0.00224175)
(0.00251633 0.00107553 3.36142e-11 0.00251635 2.44716e-10 0.00251635)
(0.00251666 0.00107497 3.76216e-11 0.00251662 -3.30982e-11 0.00251664)
(0.00251781 0.00107572 2.79104e-11 0.00251771 -2.99436e-10 0.00251775)
(0.00251933 0.00107687 6.71183e-12 0.00251924 -4.43295e-10 0.00251928)
(0.00252067 0.001078 -1.77573e-11 0.00252063 -4.11289e-10 0.00252065)
(0.00252136 0.001079 -3.59103e-11 0.00252136 -2.28508e-10 0.00252136)
(0.00252112 0.00107931 -3.96563e-11 0.00252116 3.50928e-11 0.00252113)
(0.00252001 0.00107892 -2.7092e-11 0.00252008 2.83612e-10 0.00252005)
(0.00251847 0.00107776 -4.28705e-12 0.00251855 4.27165e-10 0.00251851)
(0.00251707 0.00107628 1.84943e-11 0.00251713 4.16177e-10 0.0025171)
(0.00281823 0.00124305 2.83717e-11 0.00281827 2.7747e-10 0.00281825)
(0.00281839 0.00124269 3.07793e-11 0.00281838 -3.04013e-12 0.00281839)
(0.0028195 0.0012431 2.2274e-11 0.00281944 -2.84519e-10 0.00281947)
(0.00282111 0.00124401 4.56854e-12 0.00282103 -4.47528e-10 0.00282107)
(0.00282266 0.00124529 -1.57098e-11 0.00282259 -4.31704e-10 0.00282263)
(0.00282356 0.0012468 -3.05913e-11 0.00282353 -2.58635e-10 0.00282355)
(0.00282347 0.00124692 -3.30717e-11 0.00282348 5.42371e-12 0.00282347)
(0.00282242 0.00124656 -2.16864e-11 0.00282246 2.65536e-10 0.00282243)
(0.00282076 0.00124565 -2.00679e-12 0.00282085 4.27634e-10 0.00282081)
(0.00281919 0.00124402 2.25567e-08 0.00281926 4.36863e-10 0.00281923)
(0.00314214 0.00141152 2.30742e-11 0.00314221 2.93734e-10 0.00314217)
(0.00314213 0.00141132 2.37412e-11 0.00314216 2.44028e-11 0.00314215)
(0.00314316 0.00141136 1.64103e-11 0.00314313 -2.57535e-10 0.00314315)
(0.00314483 0.0014126 2.26188e-12 0.00314476 -4.28767e-10 0.00314479)
(0.00314654 0.001414 -1.37227e-11 0.00314645 -4.28393e-10 0.00314649)
(0.00314763 0.00141503 -2.51966e-11 0.00314757 -2.72948e-10 0.0031476)
(0.00314771 0.00141562 -2.63087e-11 0.0031477 -2.20445e-11 0.00314771)
(0.00314675 0.00141533 -1.60685e-11 0.00314677 2.35373e-10 0.00314675)
(0.00314507 0.00141409 4.41217e-13 0.00314513 4.06597e-10 0.0031451)
(0.00314333 0.00141298 1.51572e-11 0.00314342 4.33881e-10 0.00314338)
(0.00348592 0.00158163 1.78765e-11 0.00348599 2.88605e-10 0.00348595)
(0.00348572 0.00158128 1.68357e-11 0.00348577 4.35747e-11 0.00348575)
(0.00348662 0.00158123 1.06621e-11 0.00348662 -2.22251e-10 0.00348662)
(0.00348828 0.00158215 -2.00916e-08 0.00348822 -3.89138e-10 0.00348825)
(0.00349006 0.0015836 -1.1735e-11 0.00348999 -3.99814e-10 0.00349003)
(0.00349135 0.00158476 -1.98785e-11 0.00349128 -2.66946e-10 0.00349132)
(0.00349164 0.00158548 -1.96626e-11 0.00349158 -4.21664e-11 0.00349161)
(0.00349078 0.0015853 -1.05796e-11 0.00349078 1.97343e-10 0.00349078)
(0.00348913 0.0015844 2.01123e-08 0.00348918 3.65048e-10 0.00348916)
(0.00348732 0.00158322 1.35205e-11 0.00348739 4.05274e-10 0.00348735)
(0.00385079 0.00175458 1.2957e-11 0.00385088 2.59007e-10 0.00385083)
(0.00385041 0.00175382 1.04751e-11 0.00385048 4.94582e-11 0.00385045)
(0.00385113 0.00175398 5.49354e-12 0.00385118 -1.83429e-10 0.00385116)
(0.00385271 0.00175461 -1.81254e-12 0.00385269 -3.30419e-10 0.0038527)
(0.00385455 0.00175589 -9.6934e-12 0.00385448 -3.49115e-10 0.00385451)
(0.00385596 0.00175723 -1.48173e-11 0.00385588 -2.38368e-10 0.00385592)
(0.00385641 0.00175803 -1.34944e-11 0.00385634 -5.02657e-11 0.00385638)
(0.00385575 0.0017579 -5.63925e-12 0.0038557 1.56411e-10 0.00385572)
(0.00385419 0.00175729 4.69898e-12 0.0038542 3.07483e-10 0.00385419)
(0.00385233 0.00175603 1.17563e-11 0.0038524 3.51936e-10 0.00385237)
(0.00424344 0.00193385 8.4971e-12 0.00424352 2.04802e-10 0.00424348)
(0.0042429 0.001933 5.11528e-12 0.00424299 3.88194e-11 0.00424295)
(0.00424344 0.00193313 1.40198e-12 0.0042435 -1.45632e-10 0.00424347)
(0.00424485 0.00193372 -2.98802e-12 0.00424486 -2.58094e-10 0.00424485)
(0.00424662 0.00193474 -1.56438e-09 0.00424658 -2.72076e-10 0.0042466)
(0.0042481 0.00193578 -1.01669e-11 0.00424802 -1.87347e-10 0.00424806)
(0.00424872 0.00193666 -8.17752e-12 0.00424863 -4.31838e-11 0.00424867)
(0.00424823 0.00193679 -1.68719e-12 0.00424817 1.18114e-10 0.0042482)
(0.00424683 0.00193601 5.80318e-12 0.00424682 2.39112e-10 0.00424683)
(0.00424506 0.00193501 1.56617e-09 0.0042451 2.75978e-10 0.00424508)
(0.00468148 0.00212938 1.23473e-09 0.00468154 1.30476e-10 0.00468151)
(0.00468086 0.00212875 1.23085e-09 0.00468094 1.2629e-11 0.0046809)
(0.00468118 0.00212861 -1.15803e-12 0.00468126 -1.11864e-10 0.00468122)
(0.00468236 0.00212903 -3.15137e-12 0.0046824 -1.78426e-10 0.00468238)
(0.00468397 0.0021299 -5.25311e-12 0.00468395 -1.75535e-10 0.00468396)
(0.0046854 0.00213084 -1.2376e-09 0.00468534 -1.19027e-10 0.00468537)
(0.0046861 0.00213151 -1.23586e-09 0.00468602 -2.10273e-11 0.00468606)
(0.00468581 0.00213166 -1.23094e-09 0.00468574 8.73205e-11 0.00468577)
(0.00468465 0.00213126 5.74955e-12 0.00468461 1.663e-10 0.00468463)
(0.00468306 0.00213045 7.2722e-12 0.00468306 1.82403e-10 0.00468306)
(0.00520697 0.00242185 1.86091e-12 0.00520699 4.72719e-11 0.00520698)
(0.0052064 0.00242134 8.35086e-10 0.00520645 -2.10038e-11 0.00520643)
(0.00520657 0.0024212 8.34009e-10 0.00520664 -8.12241e-11 0.00520661)
(0.00520744 0.00242149 8.33801e-10 0.00520748 -1.0073e-10 0.00520746)
(0.00520871 0.00242215 -2.94347e-12 0.00520872 -8.36443e-11 0.00520872)
(0.00520995 0.00242293 -3.06406e-12 0.00520992 -4.47865e-11 0.00520993)
(0.00521063 0.00242354 -1.34999e-12 0.00521058 1.24664e-11 0.00521061)
(0.00521049 0.00242372 -8.35221e-10 0.00521043 6.76877e-11 0.00521046)
(0.00520959 0.00242339 -8.32468e-10 0.00520954 9.84977e-11 0.00520956)
(0.00520828 0.00242269 -8.32063e-10 0.00520827 8.82604e-11 0.00520827)
(0.0054997 0.00792491 1.95843e-13 0.00549971 -9.27664e-11 0.00549971)
(0.0054998 0.00792506 3.59964e-10 0.00549982 -8.27067e-11 0.00549981)
(0.00550018 0.00792558 3.59869e-10 0.00550021 -4.72755e-11 0.00550019)
(0.00550069 0.00792621 -7.93126e-13 0.00550072 -1.72224e-11 0.00550071)
(0.00550116 0.00792676 -8.60689e-13 0.00550117 1.65697e-11 0.00550117)
(0.0055014 0.00792702 -8.11489e-13 0.0055014 6.18479e-11 0.0055014)
(0.00550132 0.00792686 -9.69506e-14 0.0055013 9.81735e-11 0.00550131)
(0.00550096 0.00792639 -3.59891e-10 0.00550093 9.04392e-11 0.00550095)
(0.00550045 0.00792576 -3.59127e-10 0.00550043 3.38881e-11 0.00550044)
(0.00549998 0.00792519 1.48544e-12 0.00549997 -4.47041e-11 0.00549997)
(0.00549975 -0.00792496 7.19908e-13 0.00549976 1.57477e-10 0.00549975)
(0.00549982 -0.00792508 3.59404e-10 0.00549984 1.49467e-10 0.00549983)
(0.00550016 -0.00792556 3.59375e-10 0.0055002 8.61631e-11 0.00550018)
(0.00550066 -0.00792618 3.59874e-10 0.00550069 4.56122e-11 0.00550067)
(0.00550111 -0.00792671 -1.59486e-12 0.00550113 -1.03673e-11 0.00550112)
(0.00550136 -0.00792697 -1.84595e-12 0.00550136 -1.06108e-10 0.00550136)
(0.00550131 -0.00792685 -3.61555e-10 0.00550129 -1.86121e-10 0.0055013)
(0.00550098 -0.00792641 -3.5947e-10 0.00550095 -1.86262e-10 0.00550097)
(0.00550049 -0.00792581 -3.57897e-10 0.00550047 -9.27643e-11 0.00550048)
(0.00550004 -0.00792528 -3.57995e-10 0.00550003 5.09428e-11 0.00550003)
(0.00520712 -0.00242194 8.40568e-10 0.00520714 -4.57195e-11 0.00520713)
(0.00520652 -0.00242142 8.3478e-10 0.00520657 7.67815e-11 0.00520655)
(0.00520663 -0.00242125 8.32742e-10 0.00520669 1.68068e-10 0.00520666)
(0.00520741 -0.00242151 8.32276e-10 0.00520745 1.69674e-10 0.00520743)
(0.00520861 -0.00242209 -5.74163e-12 0.00520863 1.17723e-10 0.00520862)
(0.00520981 -0.00242285 -8.43115e-10 0.00520979 4.0604e-11 0.0052098)
(0.00521052 -0.00242346 -8.40155e-10 0.00521047 -5.19465e-11 0.00521049)
(0.00521045 -0.00242367 -8.3432e-10 0.00521039 -1.30169e-10 0.00521042)
(0.00520963 -0.0024234 -8.29009e-10 0.00520958 -1.61085e-10 0.00520961)
(0.0052084 -0.00242273 -8.27735e-10 0.00520838 -1.27075e-10 0.00520839)
(0.00468167 -0.00212949 1.24017e-09 0.00468172 -1.62847e-10 0.0046817)
(0.004681 -0.00212887 1.23212e-09 0.00468108 3.43162e-11 0.00468104)
(0.00468124 -0.00212868 1.22714e-09 0.00468132 2.22127e-10 0.00468128)
(0.00468231 -0.00212906 -6.20324e-12 0.00468235 2.89666e-10 0.00468233)
(0.00468384 -0.00212985 -1.24135e-09 0.00468383 2.51584e-10 0.00468383)
(0.00468524 -0.00213074 -1.24644e-11 0.00468519 1.42271e-10 0.00468521)
(0.00468598 -0.00213142 -7.90813e-12 0.00468591 -1.00897e-11 0.00468594)
(0.00468577 -0.0021316 -1.23016e-09 0.00468571 -1.62894e-10 0.00468574)
(0.00468471 -0.00213123 -1.22036e-09 0.00468467 -2.59807e-10 0.00468469)
(0.0046832 -0.00213048 1.46392e-11 0.00468321 -2.63717e-10 0.00468321)
(0.00424364 -0.00193402 1.57264e-09 0.00424372 -2.68359e-10 0.00424368)
(0.00424305 -0.00193318 1.5638e-09 0.00424314 -5.1272e-12 0.00424309)
(0.00424348 -0.00193301 7.30452e-13 0.00424354 2.69359e-10 0.00424351)
(0.00424478 -0.00193371 -7.28159e-12 0.00424479 4.05837e-10 0.00424479)
(0.00424648 -0.00193468 -1.57051e-11 0.00424644 3.77953e-10 0.00424646)
(0.00424794 -0.00193565 -1.57747e-09 0.00424786 2.38399e-10 0.0042479)
(0.00424859 -0.00193653 -1.45925e-11 0.00424851 1.96181e-11 0.00424855)
(0.00424822 -0.0019367 -1.74003e-12 0.00424816 -2.08271e-10 0.00424819)
(0.00424693 -0.00193601 1.56996e-09 0.00424692 -3.64324e-10 0.00424693)
(0.00424524 -0.00193511 1.57646e-09 0.00424528 -3.95421e-10 0.00424526)
(0.003851 -0.00175477 2.50669e-11 0.00385108 -3.47331e-10 0.00385104)
(0.00385056 -0.00175397 1.73643e-11 0.00385063 -2.60994e-11 0.00385059)
(0.00385116 -0.00175408 6.33856e-12 0.00385121 3.16633e-10 0.00385119)
(0.00385261 -0.00175484 -7.02261e-12 0.00385261 5.07025e-10 0.00385261)
(0.00385439 -0.00175577 -2.05158e-11 0.00385432 4.86216e-10 0.00385435)
(0.00385579 -0.00175709 -2.7723e-11 0.00385571 3.12929e-10 0.00385575)
(0.00385631 -0.00175791 -2.2916e-11 0.00385624 3.14547e-11 0.00385628)
(0.00385575 -0.00175785 -7.12477e-12 0.00385571 -2.61161e-10 0.00385573)
(0.00385431 -0.00175711 1.19683e-11 0.00385432 -4.61975e-10 0.00385431)
(0.00385253 -0.00175618 2.44495e-11 0.0038526 -5.02036e-10 0.00385257)
(0.00348612 -0.0015818 3.34218e-11 0.00348619 -3.92995e-10 0.00348615)
(0.00348584 -0.0015814 2.72689e-11 0.0034859 -2.5137e-11 0.00348587)
(0.00348661 -0.00158154 1.35941e-11 0.00348663 3.63095e-10 0.00348663)
(0.00348818 -0.00158208 -2.00963e-08 0.00348813 5.85691e-10 0.00348815)
(0.00348992 -0.00158347 -2.49603e-11 0.00348984 5.73259e-10 0.00348987)
(0.00349119 -0.00158462 -3.62848e-11 0.00349112 3.58174e-10 0.00349116)
(0.00349155 -0.00158539 -3.23946e-11 0.00349149 2.42537e-11 0.00349152)
(0.00349083 -0.0015853 -1.39877e-11 0.00349081 -3.15877e-10 0.00349081)
(0.00348927 -0.00158449 1.02321e-11 0.00348932 -5.42758e-10 0.0034893)
(0.00348751 -0.00158338 2.01213e-08 0.0034876 -5.77932e-10 0.00348756)
(0.00314233 -0.00141168 4.19422e-11 0.00314239 -4.04829e-10 0.00314236)
(0.00314223 -0.00141142 3.78528e-11 0.00314226 -5.69539e-12 0.00314225)
(0.00314315 -0.00141137 2.17595e-11 0.00314312 4.04175e-10 0.00314313)
(0.00314471 -0.00141222 -3.12308e-12 0.00314465 6.37133e-10 0.00314468)
(0.00314638 -0.00141387 -2.90564e-11 0.00314629 6.16535e-10 0.00314633)
(0.00314749 -0.0014149 -4.50323e-11 0.00314742 3.71767e-10 0.00314745)
(0.00314764 -0.00141554 -4.24794e-11 0.00314763 1.40176e-12 0.00314764)
(0.00314681 -0.00141535 -2.16991e-11 0.00314682 -3.65571e-10 0.00314681)
(0.00314523 -0.0014145 7.66983e-12 0.00314529 -5.98709e-10 0.00314526)
(0.00314354 -0.00141283 3.18396e-11 0.00314363 -6.2006e-10 0.00314359)
(0.00281837 -0.00124319 5.03815e-11 0.00281843 -3.86532e-10 0.00281841)
(0.00281846 -0.00124277 4.85162e-11 0.00281846 2.58436e-11 0.00281846)
(0.00281947 -0.00124309 3.01689e-11 0.00281941 4.34562e-10 0.00281943)
(0.00282099 -0.00124392 -4.35939e-13 0.00282092 6.59128e-10 0.00282095)
(0.00282251 -0.00124516 -3.28847e-11 0.00282244 6.22799e-10 0.00282247)
(0.00282344 -0.00124668 -5.36844e-11 0.0028234 3.57072e-10 0.00282342)
(0.00282343 -0.00124686 -5.26592e-11 0.00282343 -3.14532e-11 0.00282343)
(0.00282249 -0.00124659 -2.96564e-11 0.00282253 -4.03912e-10 0.00282251)
(0.00282095 -0.00124577 4.76938e-12 0.00282102 -6.26678e-10 0.00282098)
(0.0028194 -0.00124418 3.50386e-11 0.00281947 -6.26476e-10 0.00281943)
(0.00251647 -0.00107565 5.85593e-11 0.00251649 -3.44718e-10 0.00251649)
(0.0025167 -0.00107502 -2.31861e-08 0.00251667 6.21198e-11 0.00251669)
(0.00251776 -0.0010757 3.82965e-11 0.00251767 4.49548e-10 0.00251771)
(0.00251921 -0.00107678 2.21055e-12 0.00251911 6.50999e-10 0.00251915)
(0.00252052 -0.00107788 -3.6545e-11 0.00252048 5.96114e-10 0.00252051)
(0.00252125 -0.00107891 -6.20478e-11 0.00252125 3.19695e-10 0.00252125)
(0.0025211 -0.00107928 -6.25234e-11 0.00252113 -6.78032e-11 0.00252111)
(0.00252009 -0.00107896 -3.73847e-11 0.00252016 -4.25611e-10 0.00252013)
(0.00251863 -0.00107787 1.93327e-12 0.00251871 -6.24993e-10 0.00251867)
(0.00251725 -0.00107676 3.81383e-11 0.00251732 -5.99647e-10 0.00251729)
(0.00224136 -0.000908473 6.63795e-11 0.00224133 -2.87413e-10 0.00224134)
(0.00224171 -0.000908276 6.84575e-11 0.00224164 9.56692e-11 0.00224167)
(0.00224274 -0.000908959 4.58125e-11 0.00224266 4.4529e-10 0.00224271)
(0.00224408 -0.000910262 4.54453e-12 0.00224401 6.13819e-10 0.00224404)
(0.00224522 -0.00091117 -4.01437e-11 0.00224519 5.41624e-10 0.0022452)
(0.00224572 -0.000912013 -7.00297e-11 0.00224575 2.67054e-10 0.00224574)
(0.00224542 -0.000912266 -7.18223e-11 0.00224549 -1.00822e-10 0.00224546)
(0.00224442 -0.000911612 -4.45583e-11 0.00224449 -4.26878e-10 0.00224445)
(0.00224306 -0.000910636 -5.4994e-13 0.00224313 -5.933e-10 0.0022431)
(0.0022419 -0.000909705 4.12642e-11 0.00224193 -5.44692e-10 0.00224191)
(0.0019996 -0.000742864 7.38328e-11 0.00199953 -2.23237e-10 0.00199956)
(0.00200004 -0.000742749 7.7382e-11 0.00199996 1.19329e-10 0.00200001)
(0.00200106 -0.000743381 5.25811e-11 0.00200097 4.18935e-10 0.00200102)
(0.00200225 -0.000744189 6.42465e-12 0.00200219 5.4987e-10 0.00200221)
(0.00200316 -0.000745228 -4.37659e-11 0.00200316 4.66038e-10 0.00200316)
(0.00200346 -0.000745887 -7.76292e-11 0.00200352 2.07377e-10 0.00200349)
(0.00200305 -0.000746045 -8.04695e-11 0.00200313 -1.23841e-10 0.00200309)