/*--------------------------------*- C++ -*----------------------------------*\
| =========                 |                                                 |
| \\      /  F ield         | OpenFOAM: The Open Source CFD Toolbox           |
|  \\    /   O peration     | Version:  2.3.0                                 |
|   \\  /    A nd           | Web:      www.OpenFOAM.org                      |
|    \\/     M anipulation  |                                                 |
\*---------------------------------------------------------------------------*/
FoamFile
{
    version     2.0;
    format      ascii;
    class       volVectorField;
    location    "400";
    object      U;
}
// * * * * * * * * * * * * * * * * * * * * * * * * * * * * * * * * * * * * * //

dimensions      [0 1 -1 0 0 0 0];

internalField   nonuniform List<vector> 
3000
(
(0.710856 -6.06563e-09 -1.0152e-08)
(0.710869 -3.1646e-07 -8.21221e-09)
(0.710896 -4.82121e-07 -3.37221e-09)
(0.710926 -4.42497e-07 -2.62526e-10)
(0.710946 -2.37021e-07 2.54297e-09)
(0.71095 5.54002e-08 6.65608e-09)
(0.710936 3.12559e-07 9.78765e-09)
(0.710911 4.46483e-07 8.57041e-09)
(0.710883 4.18214e-07 2.65089e-09)
(0.710863 2.63326e-07 -5.40394e-09)
(0.843301 -2.05202e-07 -9.84833e-09)
(0.843318 -8.64438e-07 -1.04758e-08)
(0.843345 -1.14652e-06 -7.26305e-09)
(0.843369 -9.54217e-07 -3.7825e-09)
(0.843381 -4.1303e-07 4.32767e-10)
(0.843379 2.75116e-07 6.34984e-09)
(0.843363 8.35453e-07 1.14534e-08)
(0.843339 1.07661e-06 1.17848e-08)
(0.843315 9.26547e-07 6.25227e-09)
(0.8433 4.7184e-07 -2.97294e-09)
(0.915836 -4.89228e-07 -7.55946e-09)
(0.915856 -1.40957e-06 -1.10408e-08)
(0.915879 -1.71593e-06 -1.04976e-08)
(0.915895 -1.32058e-06 -7.89389e-09)
(0.915898 -4.5538e-07 -3.04208e-09)
(0.915889 5.51438e-07 4.38121e-09)
(0.91587 1.33224e-06 1.15907e-08)
(0.915848 1.62289e-06 1.4107e-08)
(0.915832 1.32206e-06 1.00048e-08)
(0.915827 5.59561e-07 8.1122e-10)
(0.965817 -8.97838e-07 -4.26534e-09)
(0.965836 -1.93616e-06 -1.07047e-08)
(0.965853 -2.14702e-06 -1.33631e-08)
(0.965862 -1.4831e-06 -1.24196e-08)
(0.965859 -2.91406e-07 -7.50429e-09)
(0.965845 9.6306e-07 1.45242e-09)
(0.965827 1.83535e-06 1.105e-08)
(0.96581 2.037e-06 1.62004e-08)
(0.965802 1.49646e-06 1.40568e-08)
(0.965804 4.20656e-07 5.41227e-09)
(1.00383 -1.32577e-06 -3.95061e-10)
(1.00384 -2.36712e-06 -9.90617e-09)
(1.00385 -2.40732e-06 -1.6073e-08)
(1.00386 -1.47072e-06 -1.72577e-08)
(1.00385 -1.62218e-08 -1.23688e-08)
(1.00383 1.38765e-06 -2.03721e-09)
(1.00382 2.25068e-06 1.01869e-08)
(1.00381 2.28983e-06 1.83007e-08)
(1.0038 1.49574e-06 1.8416e-08)
(1.00381 1.60567e-07 1.06077e-08)
(1.03434 -1.72083e-06 3.74446e-09)
(1.03435 -2.67393e-06 -8.93274e-09)
(1.03436 -2.50563e-06 -1.87678e-08)
(1.03435 -1.32525e-06 -2.23245e-08)
(1.03434 3.16719e-07 -1.77397e-08)
(1.03433 1.77547e-06 -5.83933e-09)
(1.03432 2.54977e-06 9.22771e-09)
(1.03431 2.38868e-06 2.05235e-08)
(1.03431 1.35986e-06 2.30521e-08)
(1.03433 -1.65445e-07 1.60357e-08)
(1.05959 -2.04462e-06 7.92821e-09)
(1.0596 -2.84602e-06 -7.98257e-09)
(1.0596 -2.46265e-06 -2.15234e-08)
(1.05959 -1.08876e-06 -2.75238e-08)
(1.05958 6.55831e-07 -2.32876e-08)
(1.05956 2.08997e-06 -9.72244e-09)
(1.05956 2.72126e-06 8.3294e-09)
(1.05956 2.35213e-06 2.29166e-08)
(1.05956 1.13024e-06 2.78825e-08)
(1.05958 -5.07768e-07 2.1598e-08)
(1.08079 -2.27065e-06 1.19608e-08)
(1.0808 -2.88346e-06 -7.19128e-09)
(1.08079 -2.3038e-06 -2.43611e-08)
(1.08078 -8.00887e-07 -3.27443e-08)
(1.08077 9.64459e-07 -2.8799e-08)
(1.08076 2.30637e-06 -1.34963e-08)
(1.08076 2.76409e-06 7.60349e-09)
(1.08076 2.20355e-06 2.54781e-08)
(1.08077 8.45857e-07 3.27905e-08)
(1.08078 -8.25953e-07 2.71185e-08)
(1.09865 -2.38076e-06 1.56741e-08)
(1.09864 -2.79313e-06 -6.64437e-09)
(1.09864 -2.05731e-06 -2.72543e-08)
(1.09862 -4.9954e-07 -3.78471e-08)
(1.09861 1.20921e-06 -3.40811e-08)
(1.09861 2.40734e-06 -1.69937e-08)
(1.09861 2.68385e-06 7.12156e-09)
(1.09862 1.96969e-06 2.81607e-08)
(1.09863 5.44845e-07 3.76449e-08)
(1.09864 -1.08471e-06 3.24092e-08)
(1.11354 -2.36291e-06 1.89307e-08)
(1.11353 -2.58674e-06 -6.37953e-09)
(1.11352 -1.75327e-06 -3.013e-08)
(1.11351 -2.21043e-07 -4.26725e-08)
(1.1135 1.36083e-06 -3.89424e-08)
(1.1135 2.38144e-06 -2.00751e-08)
(1.11351 2.49108e-06 6.91441e-09)
(1.11352 1.67946e-06 3.0877e-08)
(1.11353 2.64069e-07 4.22712e-08)
(1.11354 -1.2534e-06 3.72772e-08)
(1.12567 -2.20971e-06 2.16307e-08)
(1.12566 -2.27884e-06 -6.38433e-09)
(1.12565 -1.4217e-06 -3.28729e-08)
(1.12564 9.72297e-10 -4.70333e-08)
(1.12563 1.3946e-06 -4.32038e-08)
(1.12564 2.22173e-06 -2.26369e-08)
(1.12565 2.19925e-06 6.96735e-09)
(1.12566 1.36199e-06 3.35003e-08)
(1.12567 3.73649e-08 4.64817e-08)
(1.12568 -1.30608e-06 4.15444e-08)
(1.13517 -1.91878e-06 2.37243e-08)
(1.13515 -1.88495e-06 -6.59478e-09)
(1.13514 -1.08916e-06 -3.53347e-08)
(1.13513 1.39377e-07 -5.07501e-08)
(1.13513 1.29281e-06 -4.67181e-08)
(1.13514 1.92629e-06 -2.46252e-08)
(1.13516 1.82296e-06 7.21686e-09)
(1.13517 1.04309e-06 3.58737e-08)
(1.13518 -1.07969e-07 5.00864e-08)
(1.13518 -1.22399e-06 4.50632e-08)
(1.14212 -1.49606e-06 2.52194e-08)
(1.1421 -1.42065e-06 -6.90453e-09)
(1.14208 -7.74093e-07 -3.73547e-08)
(1.14207 1.80184e-07 -5.36655e-08)
(1.14208 1.0509e-06 -4.93892e-08)
(1.1421 1.50144e-06 -2.6044e-08)
(1.14212 1.37702e-06 7.5578e-09)
(1.14213 7.40585e-07 3.78307e-08)
(1.14214 -1.5785e-07 5.2922e-08)
(1.14213 -1.00171e-06 4.77369e-08)
(1.14664 -9.60707e-07 2.61718e-08)
(1.14661 -9.02144e-07 -7.18972e-09)
(1.1466 -4.83075e-07 -3.87893e-08)
(1.14659 1.29045e-07 -5.56696e-08)
(1.1466 6.84331e-07 -5.11809e-08)
(1.14662 9.66386e-07 -2.6946e-08)
(1.14665 8.77087e-07 7.86718e-09)
(1.14666 4.60721e-07 3.92243e-08)
(1.14667 -1.17713e-07 5.48736e-08)
(1.14666 -6.54155e-07 4.95284e-08)
(1.14885 -3.47085e-07 2.66533e-08)
(1.14883 -3.47165e-07 -7.34428e-09)
(1.14881 -2.10411e-07 -3.95337e-08)
(1.14881 1.26306e-08 -5.67041e-08)
(1.14882 2.30477e-07 -5.21007e-08)
(1.14884 3.54974e-07 -2.74008e-08)
(1.14887 3.40647e-07 8.03814e-09)
(1.14888 1.98074e-07 3.99519e-08)
(1.14889 -1.37023e-08 5.58802e-08)
(1.14887 -2.18648e-07 5.04438e-08)
(1.14885 2.98533e-07 2.67128e-08)
(1.14883 2.24791e-07 -7.30625e-09)
(1.14881 5.81568e-08 -3.95367e-08)
(1.14881 -1.27041e-07 -5.67477e-08)
(1.14882 -2.56926e-07 -5.21646e-08)
(1.14884 -2.87607e-07 -2.74563e-08)
(1.14887 -2.1278e-07 8.00872e-09)
(1.14888 -6.0911e-08 3.99577e-08)
(1.14889 1.1296e-07 5.59165e-08)
(1.14888 2.50689e-07 5.04979e-08)
(1.14664 9.24798e-07 2.63498e-08)
(1.14661 7.9291e-07 -7.07079e-09)
(1.1466 3.39537e-07 -3.87916e-08)
(1.14659 -2.42427e-07 -5.5793e-08)
(1.1466 -7.17784e-07 -5.13676e-08)
(1.14662 -9.11348e-07 -2.71117e-08)
(1.14665 -7.62211e-07 7.77472e-09)
(1.14666 -3.32312e-07 3.92343e-08)
(1.14667 2.15629e-07 5.49744e-08)
(1.14666 6.93148e-07 4.9685e-08)
(1.14212 1.48309e-06 2.55139e-08)
(1.1421 1.33573e-06 -6.69142e-09)
(1.14208 6.47009e-07 -3.73375e-08)
(1.14207 -2.91145e-07 -5.38475e-08)
(1.14208 -1.09675e-06 -4.9684e-08)
(1.1421 -1.46883e-06 -2.63174e-08)
(1.14212 -1.28612e-06 7.39125e-09)
(1.14214 -6.28668e-07 3.78224e-08)
(1.14214 2.52771e-07 5.30634e-08)
(1.14214 1.0529e-06 4.79792e-08)
(1.13517 1.93497e-06 2.41298e-08)
(1.13515 1.83209e-06 -6.26981e-09)
(1.13514 9.84618e-07 -3.52649e-08)
(1.13513 -2.45773e-07 -5.09571e-08)
(1.13513 -1.35361e-06 -4.70972e-08)
(1.13514 -1.92233e-06 -2.50002e-08)
(1.13516 -1.76354e-06 6.96138e-09)
(1.13517 -9.53659e-07 3.58155e-08)
(1.13518 1.97595e-07 5.02323e-08)
(1.13518 1.28969e-06 4.53643e-08)
(1.12568 2.25659e-06 2.21371e-08)
(1.12566 2.26176e-06 -5.92985e-09)
(1.12565 1.34396e-06 -3.27139e-08)
(1.12563 -9.97727e-08 -4.72259e-08)
(1.12563 -1.46963e-06 -4.36364e-08)
(1.12564 -2.24815e-06 -2.31026e-08)
(1.12565 -2.17478e-06 6.60905e-09)
(1.12567 -1.299e-06 3.33569e-08)
(1.12568 4.39345e-08 4.65891e-08)
(1.12568 1.38522e-06 4.18698e-08)
(1.11354 2.43788e-06 1.95224e-08)
(1.11353 2.60548e-06 -5.78297e-09)
(1.11352 1.70475e-06 -2.98499e-08)
(1.11351 1.33508e-07 -4.28119e-08)
(1.1135 -1.4465e-06 -3.93941e-08)
(1.1135 -2.43597e-06 -2.06145e-08)
(1.11351 -2.5014e-06 6.44464e-09)
(1.11352 -1.64495e-06 3.06159e-08)
(1.11353 -1.94633e-07 4.2295e-08)
(1.11354 1.34203e-06 3.75883e-08)
(1.09865 2.47824e-06 1.6331e-08)
(1.09865 2.84478e-06 -5.9011e-09)
(1.09864 2.03869e-06 -2.68308e-08)
(1.09862 4.2707e-07 -3.78992e-08)
(1.09861 -1.30005e-06 -3.45174e-08)
(1.09861 -2.4848e-06 -1.75842e-08)
(1.09861 -2.72596e-06 6.53957e-09)
(1.09862 -1.96397e-06 2.77564e-08)
(1.09863 -4.90819e-07 3.75357e-08)
(1.09864 1.17708e-06 3.26665e-08)
(1.08079 2.38318e-06 1.26596e-08)
(1.0808 2.96286e-06 -6.306e-09)
(1.08079 2.31404e-06 -2.37845e-08)
(1.08078 7.46797e-07 -3.26641e-08)
(1.08077 -1.05416e-06 -2.91854e-08)
(1.08076 -2.39977e-06 -1.41112e-08)
(1.08076 -2.83285e-06 6.91696e-09)
(1.08076 -2.22526e-06 2.49145e-08)
(1.08077 -8.10096e-07 3.25216e-08)
(1.08079 9.15581e-07 2.72862e-08)
(1.05959 2.16367e-06 8.64544e-09)
(1.0596 2.94615e-06 -6.96905e-09)
(1.0596 2.49891e-06 -2.0797e-08)
(1.05959 1.05525e-06 -2.73108e-08)
(1.05958 -7.38062e-07 -2.35983e-08)
(1.05956 -2.19133e-06 -1.03322e-08)
(1.05956 -2.80986e-06 7.55372e-09)
(1.05956 -2.39809e-06 2.21883e-08)
(1.05956 -1.11461e-06 2.74245e-08)
(1.05958 5.88326e-07 2.16422e-08)
(1.03434 1.83749e-06 4.45704e-09)
(1.03435 2.78619e-06 -7.81333e-09)
(1.03436 2.5631e-06 -1.79124e-08)
(1.03435 1.31289e-06 -2.19753e-08)
(1.03434 -3.86212e-07 -1.79563e-08)
(1.03433 -1.8764e-06 -6.41422e-09)
(1.03432 -2.65002e-06 8.38395e-09)
(1.03431 -2.45382e-06 1.96328e-08)
(1.03432 -1.36453e-06 2.24028e-08)
(1.03433 2.31557e-07 1.59337e-08)
(1.00383 1.43133e-06 2.93845e-10)
(1.00384 2.48161e-06 -8.71155e-09)
(1.00386 2.47903e-06 -1.51252e-08)
(1.00386 1.47798e-06 -1.67962e-08)
(1.00385 -3.87064e-08 -1.24594e-08)
(1.00383 -1.48013e-06 -2.55125e-09)
(1.00382 -2.35329e-06 9.30012e-09)
(1.00381 -2.36707e-06 1.7259e-08)
(1.0038 -1.51815e-06 1.75802e-08)
(1.00381 -1.1246e-07 1.03553e-08)
(0.965817 9.84621e-07 -3.60582e-09)
(0.965837 2.04208e-06 -9.47507e-09)
(0.965855 2.22376e-06 -1.23788e-08)
(0.965863 1.50578e-06 -1.18793e-08)
(0.965859 2.55289e-07 -7.25718e-09)
(0.965845 -1.03989e-06 1.03572e-09)
(0.965826 -1.93034e-06 1.01463e-08)
(0.965809 -2.11715e-06 1.5029e-08)
(0.965801 -1.53139e-06 1.30336e-08)
(0.965804 -3.9227e-07 5.09331e-09)
(0.915836 5.51664e-07 -6.9372e-09)
(0.915857 1.49619e-06 -9.82878e-09)
(0.91588 1.78644e-06 -9.55526e-09)
(0.915896 1.35123e-06 -7.31746e-09)
(0.9159 4.40477e-07 -2.72344e-09)
(0.915889 -6.07428e-07 4.06455e-09)
(0.915869 -1.40984e-06 1.06965e-08)
(0.915847 -1.69485e-06 1.28352e-08)
(0.915831 -1.36146e-06 8.81942e-09)
(0.915826 -5.50306e-07 3.84254e-10)
(0.843299 2.42853e-07 -9.24236e-09)
(0.843318 9.23117e-07 -9.3555e-09)
(0.843346 1.19855e-06 -6.46792e-09)
(0.843371 9.80973e-07 -3.22873e-09)
(0.843383 4.08439e-07 8.28947e-10)
(0.843381 -3.11118e-07 6.15599e-09)
(0.843364 -8.88259e-07 1.05943e-08)
(0.843338 -1.12763e-06 1.04573e-08)
(0.843313 -9.57292e-07 4.95862e-09)
(0.843298 -4.72346e-07 -3.42073e-09)
(0.710854 1.90583e-08 -9.58713e-09)
(0.710868 3.41574e-07 -7.29959e-09)
(0.710897 5.07013e-07 -2.85136e-09)
(0.710927 4.57859e-07 2.13281e-10)
(0.710948 2.3835e-07 3.00896e-09)
(0.710952 -6.88821e-08 6.57252e-09)
(0.710937 -3.3506e-07 9.00449e-09)
(0.71091 -4.70061e-07 7.28882e-09)
(0.710881 -4.34582e-07 1.38904e-09)
(0.710861 -2.6737e-07 -5.85242e-09)
(0.710856 2.72117e-09 -1.55774e-08)
(0.710868 -3.09824e-07 -1.23672e-08)
(0.710895 -4.80849e-07 -4.69269e-09)
(0.710925 -4.46765e-07 -1.20705e-09)
(0.710946 -2.45137e-07 2.90205e-09)
(0.71095 4.67264e-08 1.05767e-08)
(0.710937 3.07196e-07 1.65406e-08)
(0.710912 4.45647e-07 1.5191e-08)
(0.710884 4.22022e-07 5.81757e-09)
(0.710864 2.69519e-07 -7.04752e-09)
(0.8433 -1.8564e-07 -1.612e-08)
(0.843317 -8.5251e-07 -1.75147e-08)
(0.843344 -1.14736e-06 -1.22612e-08)
(0.843368 -9.6693e-07 -7.28382e-09)
(0.843381 -4.32039e-07 -9.77539e-11)
(0.84338 2.56593e-07 1.10228e-08)
(0.843364 8.25277e-07 2.04059e-08)
(0.84334 1.0776e-06 2.1342e-08)
(0.843316 9.37919e-07 1.19548e-08)
(0.843301 4.89381e-07 -3.578e-09)
(0.915836 -4.61973e-07 -1.34768e-08)
(0.915855 -1.39558e-06 -1.98379e-08)
(0.915878 -1.72112e-06 -1.86913e-08)
(0.915895 -1.34181e-06 -1.42706e-08)
(0.915898 -4.84562e-07 -5.24332e-09)
(0.915889 5.26206e-07 8.81932e-09)
(0.91587 1.31976e-06 2.17505e-08)
(0.915849 1.62708e-06 2.594e-08)
(0.915833 1.34109e-06 1.82405e-08)
(0.915827 5.87758e-07 1.99133e-09)
(0.965816 -8.66945e-07 -9.18699e-09)
(0.965836 -1.92427e-06 -2.05597e-08)
(0.965853 -2.15931e-06 -2.43323e-08)
(0.965862 -1.51359e-06 -2.18123e-08)
(0.965859 -3.26174e-07 -1.18511e-08)
(0.965845 9.34882e-07 5.08995e-09)
(0.965827 1.82506e-06 2.19382e-08)
(0.96581 2.04786e-06 3.00619e-08)
(0.965801 1.5242e-06 2.4916e-08)
(0.965804 4.583e-07 8.84985e-09)
(1.00383 -1.29471e-06 -3.95824e-09)
(1.00384 -2.36012e-06 -2.03894e-08)
(1.00385 -2.42766e-06 -2.95161e-08)
(1.00386 -1.50922e-06 -2.97174e-08)
(1.00385 -5.495e-08 -1.91873e-08)
(1.00383 1.35971e-06 4.33762e-10)
(1.00382 2.24519e-06 2.15276e-08)
(1.00381 2.30838e-06 3.40772e-08)
(1.0038 1.5313e-06 3.1989e-08)
(1.00381 2.02884e-07 1.64942e-08)
(1.03434 -1.69246e-06 1.74997e-09)
(1.03435 -2.67342e-06 -1.97971e-08)
(1.03436 -2.53375e-06 -3.44793e-08)
(1.03436 -1.36971e-06 -3.78532e-08)
(1.03434 2.74021e-07 -2.72183e-08)
(1.03433 1.75017e-06 -4.75234e-09)
(1.03432 2.5506e-06 2.08655e-08)
(1.03431 2.4148e-06 3.81631e-08)
(1.03431 1.40149e-06 3.94003e-08)
(1.03433 -1.22368e-07 2.45954e-08)
(1.05959 -2.02081e-06 7.58093e-09)
(1.0596 -2.85257e-06 -1.91018e-08)
(1.0596 -2.49744e-06 -3.93585e-08)
(1.05959 -1.13692e-06 -4.60742e-08)
(1.05958 6.13498e-07 -3.54904e-08)
(1.05956 2.06921e-06 -1.01205e-08)
(1.05956 2.72892e-06 2.01908e-08)
(1.05956 2.38485e-06 4.23915e-08)
(1.05956 1.17565e-06 4.70241e-08)
(1.05958 -4.65155e-07 3.28992e-08)
(1.08079 -2.25261e-06 1.32368e-08)
(1.0808 -2.89673e-06 -1.85212e-08)
(1.08079 -2.34356e-06 -4.42051e-08)
(1.08078 -8.50459e-07 -5.4222e-08)
(1.08077 9.24706e-07 -4.36897e-08)
(1.08076 2.29114e-06 -1.53822e-08)
(1.08076 2.77823e-06 1.96716e-08)
(1.08076 2.24132e-06 4.67601e-08)
(1.08077 8.92983e-07 5.46851e-08)
(1.08078 -7.85714e-07 4.1124e-08)
(1.09865 -2.36887e-06 1.84657e-08)
(1.09865 -2.81204e-06 -1.81934e-08)
(1.09864 -2.09993e-06 -4.89977e-08)
(1.09862 -5.48323e-07 -6.20995e-08)
(1.09861 1.17354e-06 -5.15295e-08)
(1.09861 2.39793e-06 -2.0286e-08)
(1.09861 2.70342e-06 1.94172e-08)
(1.09862 2.01049e-06 5.12017e-08)
(1.09863 5.91589e-07 6.21874e-08)
(1.09864 -1.04847e-06 4.89877e-08)
(1.11354 -2.3568e-06 2.30621e-08)
(1.11353 -2.60958e-06 -1.81832e-08)
(1.11352 -1.79634e-06 -5.36456e-08)
(1.11351 -2.66887e-07 -6.94783e-08)
(1.1135 1.33028e-06 -5.87286e-08)
(1.1135 2.37742e-06 -2.46228e-08)
(1.11351 2.51438e-06 1.94771e-08)
(1.11352 1.72097e-06 5.55921e-08)
(1.11353 3.08251e-07 6.92778e-08)
(1.11354 -1.2223e-06 5.62074e-08)
(1.12567 -2.20833e-06 2.68774e-08)
(1.12566 -2.30331e-06 -1.84807e-08)
(1.12565 -1.46264e-06 -5.79947e-08)
(1.12564 -3.9973e-08 -7.61024e-08)
(1.12563 1.36966e-06 -6.50276e-08)
(1.12564 2.22202e-06 -2.82377e-08)
(1.12565 2.22406e-06 1.98359e-08)
(1.12566 1.40166e-06 5.97525e-08)
(1.12567 7.70419e-08 7.56859e-08)
(1.12568 -1.28068e-06 6.25234e-08)
(1.13517 -1.92049e-06 2.98367e-08)
(1.13515 -1.90835e-06 -1.90013e-08)
(1.13514 -1.12529e-06 -6.18417e-08)
(1.13513 1.0496e-07 -8.1717e-08)
(1.13513 1.2735e-06 -7.02149e-08)
(1.13514 1.92927e-06 -3.10491e-08)
(1.13516 1.84661e-06 2.04085e-08)
(1.13517 1.07824e-06 6.34634e-08)
(1.13518 -7.45246e-08 8.11428e-08)
(1.13518 -1.20435e-06 6.77232e-08)
(1.14212 -1.49894e-06 3.19497e-08)
(1.1421 -1.44014e-06 -1.95987e-08)
(1.14208 -8.028e-07 -6.49649e-08)
(1.14207 1.53717e-07 -8.61033e-08)
(1.14208 1.03694e-06 -7.41549e-08)
(1.1421 1.50521e-06 -3.30593e-08)
(1.14212 1.39672e-06 2.10505e-08)
(1.14213 7.68574e-07 6.64933e-08)
(1.14214 -1.32104e-07 8.542e-08)
(1.14213 -9.87572e-07 7.16707e-08)
(1.14664 -9.62907e-07 3.32964e-08)
(1.14661 -9.15158e-07 -2.01016e-08)
(1.1466 -5.0202e-07 -6.71663e-08)
(1.14659 1.11698e-07 -8.91112e-08)
(1.1466 6.75316e-07 -7.67996e-08)
(1.14662 9.69139e-07 -3.43421e-08)
(1.14665 8.90305e-07 2.15914e-08)
(1.14666 4.79279e-07 6.86392e-08)
(1.14667 -1.00853e-07 8.83599e-08)
(1.14666 -6.45141e-07 7.43172e-08)
(1.14885 -3.4729e-07 3.39815e-08)
(1.14883 -3.51869e-07 -2.03626e-08)
(1.14881 -2.1793e-07 -6.83033e-08)
(1.14881 5.22472e-09 -9.06641e-08)
(1.14882 2.26114e-07 -7.81642e-08)
(1.14884 3.55414e-07 -3.49975e-08)
(1.14887 3.45571e-07 2.1882e-08)
(1.14888 2.0555e-07 6.97593e-08)
(1.14889 -6.57311e-09 8.98817e-08)
(1.14888 -2.14469e-07 7.56767e-08)
(1.14885 3.00819e-07 3.40768e-08)
(1.14883 2.29143e-07 -2.02945e-08)
(1.14881 6.27474e-08 -6.83043e-08)
(1.14881 -1.24116e-07 -9.07345e-08)
(1.14882 -2.56689e-07 -7.82744e-08)
(1.14884 -2.89963e-07 -3.50951e-08)
(1.14887 -2.16881e-07 2.18346e-08)
(1.14888 -6.52499e-08 6.97774e-08)
(1.14889 1.09944e-07 8.9953e-08)
(1.14888 2.50079e-07 7.57738e-08)
(1.14664 9.29122e-07 3.35834e-08)
(1.14661 8.0583e-07 -1.98882e-08)
(1.1466 3.55873e-07 -6.71579e-08)
(1.14659 -2.29239e-07 -8.93116e-08)
(1.1466 -7.12716e-07 -7.7124e-08)
(1.14662 -9.16058e-07 -3.46355e-08)
(1.14665 -7.74852e-07 2.14411e-08)
(1.14666 -3.48107e-07 6.86818e-08)
(1.14667 2.02544e-07 8.85613e-08)
(1.14666 6.87515e-07 7.46005e-08)
(1.14212 1.48815e-06 3.243e-08)
(1.1421 1.35559e-06 -1.92152e-08)
(1.14208 6.7376e-07 -6.49148e-08)
(1.14207 -2.68222e-07 -8.64021e-08)
(1.14208 -1.08639e-06 -7.46742e-08)
(1.1421 -1.47462e-06 -3.3549e-08)
(1.14212 -1.30569e-06 2.07763e-08)
(1.14213 -6.54573e-07 6.65246e-08)
(1.14214 2.30176e-07 8.57143e-08)
(1.14214 1.04179e-06 7.21166e-08)
(1.13517 1.9389e-06 3.05081e-08)
(1.13515 1.85642e-06 -1.84158e-08)
(1.13514 1.01969e-06 -6.16977e-08)
(1.13513 -2.14074e-07 -8.20642e-08)
(1.13513 -1.33743e-06 -7.08971e-08)
(1.13514 -1.92737e-06 -3.1731e-08)
(1.13516 -1.78759e-06 1.9983e-08)
(1.13517 -9.87567e-07 6.34308e-08)
(1.13518 1.66482e-07 8.14729e-08)
(1.13518 1.27258e-06 6.82922e-08)
(1.12568 2.25738e-06 2.77291e-08)
(1.12566 2.28772e-06 -1.76632e-08)
(1.12565 1.38479e-06 -5.77e-08)
(1.12564 -6.06213e-08 -7.6439e-08)
(1.12563 -1.44722e-06 -6.58286e-08)
(1.12564 -2.25047e-06 -2.90979e-08)
(1.12565 -2.20053e-06 1.92348e-08)
(1.12567 -1.33834e-06 5.95981e-08)
(1.12568 5.64917e-09 7.59825e-08)
(1.12568 1.36173e-06 6.31623e-08)
(1.11354 2.43377e-06 2.40721e-08)
(1.11353 2.63027e-06 -1.7114e-08)
(1.11352 1.74859e-06 -5.31524e-08)
(1.11351 1.78517e-07 -6.97461e-08)
(1.1135 -1.41781e-06 -5.95963e-08)
(1.1135 -2.43383e-06 -2.56339e-08)
(1.11351 -2.52609e-06 1.86878e-08)
(1.11352 -1.687e-06 5.52633e-08)
(1.11353 -2.38522e-07 6.94684e-08)
(1.11354 1.31214e-06 5.68536e-08)
(1.09865 2.46805e-06 1.96015e-08)
(1.09865 2.86596e-06 -1.68687e-08)
(1.09864 2.08284e-06 -4.82764e-08)
(1.09862 4.76239e-07 -6.22496e-08)
(1.09861 -1.26549e-06 -5.24085e-08)
(1.09861 -2.47701e-06 -2.14074e-08)
(1.09861 -2.74721e-06 1.84434e-08)
(1.09862 -2.00604e-06 5.06584e-08)
(1.09863 -5.38232e-07 6.21998e-08)
(1.09864 1.14128e-06 4.95745e-08)
(1.08079 2.36641e-06 1.44593e-08)
(1.0808 2.9785e-06 -1.69544e-08)
(1.08079 2.35593e-06 -4.32501e-08)
(1.08078 7.97711e-07 -5.42186e-08)
(1.08077 -1.01475e-06 -4.45259e-08)
(1.08076 -2.38578e-06 -1.65619e-08)
(1.08076 -2.84879e-06 1.85341e-08)
(1.08076 -2.26486e-06 4.59783e-08)
(1.08077 -8.58725e-07 5.44603e-08)
(1.08078 8.74969e-07 4.15867e-08)
(1.05959 2.1406e-06 8.8493e-09)
(1.0596 2.95497e-06 -1.73228e-08)
(1.0596 2.53622e-06 -3.81933e-08)
(1.05959 1.1053e-06 -4.59102e-08)
(1.05958 -6.95432e-07 -3.62362e-08)
(1.05956 -2.17133e-06 -1.12986e-08)
(1.05956 -2.81926e-06 1.8925e-08)
(1.05956 -2.43301e-06 4.13645e-08)
(1.05956 -1.16214e-06 4.65027e-08)
(1.05958 5.44569e-07 3.31757e-08)
(1.03434 1.80923e-06 3.02629e-09)
(1.03435 2.78768e-06 -1.78522e-08)
(1.03436 2.59387e-06 -3.31613e-08)
(1.03436 1.35966e-06 -3.75452e-08)
(1.03434 -3.42365e-07 -2.78437e-08)
(1.03433 -1.85139e-06 -5.86482e-09)
(1.03432 -2.65236e-06 1.9518e-08)
(1.03431 -2.48228e-06 3.68968e-08)
(1.03431 -1.40846e-06 3.85738e-08)
(1.03433 1.86859e-07 2.46429e-08)
(1.00383 1.39988e-06 -2.70334e-09)
(1.00384 2.47617e-06 -1.83416e-08)
(1.00386 2.50193e-06 -2.81387e-08)
(1.00386 1.51886e-06 -2.93169e-08)
(1.00385 4.70163e-09 -1.96374e-08)
(1.00383 -1.45185e-06 -5.53606e-10)
(1.00382 -2.34895e-06 2.01509e-08)
(1.00381 -2.38785e-06 3.25908e-08)
(1.0038 -1.5563e-06 3.08581e-08)
(1.00381 -1.55534e-07 1.62852e-08)
(0.965817 9.52896e-07 -7.96799e-09)
(0.965837 2.03124e-06 -1.84916e-08)
(0.965855 2.23828e-06 -2.30297e-08)
(0.965863 1.53861e-06 -2.13899e-08)
(0.96586 2.94292e-07 -1.1786e-08)
(0.965845 -1.01102e-06 4.30314e-09)
(0.965826 -1.92075e-06 2.05853e-08)
(0.965809 -2.12989e-06 2.83868e-08)
(0.965801 -1.56184e-06 2.34802e-08)
(0.965803 -4.30472e-07 8.39546e-09)
(0.915835 5.23428e-07 -1.22821e-08)
(0.915856 1.48273e-06 -1.78603e-08)
(0.91588 1.79329e-06 -1.76444e-08)
(0.915896 1.37452e-06 -1.3914e-08)
(0.9159 4.70065e-07 -4.99711e-09)
(0.91589 -5.81426e-07 8.26414e-09)
(0.91587 -1.39765e-06 2.04688e-08)
(0.915848 -1.70046e-06 2.41165e-08)
(0.915831 -1.38276e-06 1.65272e-08)
(0.915826 -5.79481e-07 1.35719e-09)
(0.843299 2.22547e-07 -1.49207e-08)
(0.843317 9.114e-07 -1.57781e-08)
(0.843345 1.20044e-06 -1.16913e-08)
(0.84337 9.95235e-07 -7.08386e-09)
(0.843383 4.28144e-07 3.23134e-10)
(0.843381 -2.91859e-07 1.07424e-08)
(0.843364 -8.78207e-07 1.92312e-08)
(0.843339 -1.12959e-06 1.94259e-08)
(0.843314 -9.70135e-07 1.00421e-08)
(0.843299 -4.90506e-07 -4.29986e-09)
(0.710854 9.54589e-09 -1.43951e-08)
(0.710867 3.34893e-07 -1.10672e-08)
(0.710896 5.06021e-07 -4.78454e-09)
(0.710927 4.62988e-07 -1.18739e-09)
(0.710948 2.46963e-07 3.53482e-09)
(0.710952 -5.98632e-08 1.05522e-08)
(0.710937 -3.29652e-07 1.55062e-08)
(0.710911 -4.69595e-07 1.33124e-08)
(0.710882 -4.38782e-07 3.90855e-09)
(0.710861 -2.74797e-07 -7.78231e-09)
(0.710856 5.44577e-09 -6.15115e-09)
(0.710868 -3.08406e-07 -7.64606e-09)
(0.710895 -4.81317e-07 -5.17084e-09)
(0.710925 -4.48905e-07 -6.23724e-09)
(0.710946 -2.47921e-07 -4.90274e-09)
(0.71095 4.41865e-08 2.35895e-09)
(0.710937 3.06176e-07 1.10515e-08)
(0.710912 4.46345e-07 1.51589e-08)
(0.710884 4.24122e-07 1.20304e-08)
(0.710864 2.72306e-07 3.75053e-09)
(0.8433 -1.80208e-07 -6.89936e-09)
(0.843317 -8.50722e-07 -1.26031e-08)
(0.843344 -1.14977e-06 -1.28346e-08)
(0.843368 -9.72566e-07 -1.20038e-08)
(0.843381 -4.38691e-07 -7.122e-09)
(0.84338 2.51418e-07 3.49292e-09)
(0.843364 8.23906e-07 1.49038e-08)
(0.84334 1.08025e-06 2.04564e-08)
(0.843316 9.43506e-07 1.68813e-08)
(0.843301 4.96026e-07 6.17556e-09)
(0.915835 -4.54807e-07 -6.11077e-09)
(0.915855 -1.39445e-06 -1.56896e-08)
(0.915878 -1.726e-06 -1.91824e-08)
(0.915895 -1.35078e-06 -1.77732e-08)
(0.915899 -4.9373e-07 -1.02378e-08)
(0.915889 5.19727e-07 3.2984e-09)
(0.91587 1.31878e-06 1.72366e-08)
(0.915849 1.63192e-06 2.44664e-08)
(0.915833 1.3499e-06 2.12267e-08)
(0.915827 5.98219e-07 9.22778e-09)
(0.965816 -8.59811e-07 -4.53279e-09)
(0.965835 -1.92507e-06 -1.76212e-08)
(0.965853 -2.16728e-06 -2.44885e-08)
(0.965862 -1.5257e-06 -2.34184e-08)
(0.965859 -3.37159e-07 -1.39214e-08)
(0.965846 9.28505e-07 2.28387e-09)
(0.965827 1.82591e-06 1.8834e-08)
(0.96581 2.05568e-06 2.80228e-08)
(0.965801 1.5361e-06 2.55404e-08)
(0.965803 4.69766e-07 1.27771e-08)
(1.00383 -1.28866e-06 -2.52879e-09)
(1.00384 -2.36349e-06 -1.88519e-08)
(1.00385 -2.43868e-06 -2.90427e-08)
(1.00386 -1.52371e-06 -2.88675e-08)
(1.00385 -6.70464e-08 -1.79841e-08)
(1.00383 1.35438e-06 7.26602e-10)
(1.00382 2.24852e-06 1.99874e-08)
(1.00381 2.31916e-06 3.13542e-08)
(1.0038 1.54559e-06 2.98946e-08)
(1.00381 2.1488e-07 1.6519e-08)
(1.03434 -1.68813e-06 -2.94991e-10)
(1.03435 -2.6796e-06 -1.96739e-08)
(1.03436 -2.54741e-06 -3.30612e-08)
(1.03436 -1.38565e-06 -3.40932e-08)
(1.03434 2.61998e-07 -2.22213e-08)
(1.03433 1.74661e-06 -1.15474e-09)
(1.03432 2.55661e-06 2.08645e-08)
(1.03431 2.42816e-06 3.4549e-08)
(1.03431 1.4173e-06 3.42654e-08)
(1.03432 -1.09618e-07 2.05033e-08)
(1.05959 -2.01871e-06 2.00136e-09)
(1.0596 -2.8614e-06 -2.02734e-08)
(1.0596 -2.5131e-06 -3.66827e-08)
(1.05959 -1.15339e-06 -3.90618e-08)
(1.05958 6.0249e-07 -2.64606e-08)
(1.05956 2.06779e-06 -3.18904e-09)
(1.05956 2.73748e-06 2.15766e-08)
(1.05956 2.40018e-06 3.76335e-08)
(1.05956 1.19213e-06 3.85936e-08)
(1.05958 -4.53266e-07 2.45249e-08)
(1.08079 -2.25285e-06 4.23172e-09)
(1.0808 -2.90777e-06 -2.07708e-08)
(1.08079 -2.36044e-06 -3.9987e-08)
(1.08078 -8.66676e-07 -4.37314e-08)
(1.08077 9.15248e-07 -3.0563e-08)
(1.08076 2.29197e-06 -5.23424e-09)
(1.08076 2.78894e-06 2.22013e-08)
(1.08076 2.25789e-06 4.05992e-08)
(1.08077 9.0931e-07 4.27941e-08)
(1.08078 -7.75379e-07 2.84424e-08)
(1.09865 -2.37129e-06 6.29121e-09)
(1.09865 -2.82463e-06 -2.12399e-08)
(1.09864 -2.11719e-06 -4.30077e-08)
(1.09862 -5.63571e-07 -4.80423e-08)
(1.09861 1.16594e-06 -3.44015e-08)
(1.09861 2.40083e-06 -7.16985e-09)
(1.09861 2.71567e-06 2.27904e-08)
(1.09862 2.02749e-06 4.34127e-08)
(1.09863 6.07056e-07 4.67686e-08)
(1.09864 -1.04005e-06 3.21266e-08)
(1.11354 -2.36098e-06 8.09433e-09)
(1.11353 -2.62288e-06 -2.16821e-08)
(1.11352 -1.81311e-06 -4.5738e-08)
(1.11351 -2.80638e-07 -5.19197e-08)
(1.1135 1.32461e-06 -3.78576e-08)
(1.1135 2.38196e-06 -8.8966e-09)
(1.11351 2.52739e-06 2.33722e-08)
(1.11352 1.73755e-06 4.60212e-08)
(1.11353 3.22265e-07 5.04082e-08)
(1.11354 -1.21589e-06 3.54563e-08)
(1.12567 -2.21359e-06 9.58279e-09)
(1.12566 -2.31636e-06 -2.22255e-08)
(1.12565 -1.47805e-06 -4.8136e-08)
(1.12564 -5.18182e-08 -5.52836e-08)
(1.12563 1.36577e-06 -4.08278e-08)
(1.12564 2.22752e-06 -1.03411e-08)
(1.12565 2.23687e-06 2.39508e-08)
(1.12566 1.41697e-06 4.83565e-08)
(1.12567 8.91495e-08 5.3603e-08)
(1.12568 -1.27615e-06 3.83231e-08)
(1.13517 -1.92599e-06 1.07237e-08)
(1.13515 -1.92009e-06 -2.26835e-08)
(1.13514 -1.13851e-06 -5.01883e-08)
(1.13513 9.53645e-08 -5.80563e-08)
(1.13513 1.27107e-06 -4.32329e-08)
(1.13514 1.9349e-06 -1.1463e-08)
(1.13516 1.8582e-06 2.45052e-08)
(1.13517 1.09144e-06 5.03421e-08)
(1.13518 -6.46481e-08 5.62534e-08)
(1.13518 -1.2014e-06 4.06451e-08)
(1.14212 -1.50374e-06 1.15259e-08)
(1.1421 -1.44951e-06 -2.31709e-08)
(1.14208 -8.13042e-07 -5.17862e-08)
(1.14207 1.46575e-07 -6.0169e-08)
(1.14208 1.03551e-06 -4.5032e-08)
(1.1421 1.51005e-06 -1.22601e-08)
(1.14212 1.40604e-06 2.49928e-08)
(1.14213 7.78887e-07 5.19051e-08)
(1.14214 -1.24681e-07 5.82849e-08)
(1.14213 -9.85765e-07 4.23783e-08)
(1.14664 -9.66158e-07 1.2022e-08)
(1.14661 -9.21228e-07 -2.35143e-08)
(1.1466 -5.08632e-07 -5.28808e-08)
(1.14659 1.07139e-07 -6.1591e-08)
(1.1466 6.74463e-07 -4.62234e-08)
(1.14662 9.72354e-07 -1.27618e-08)
(1.14665 8.9643e-07 2.53613e-08)
(1.14666 4.86031e-07 5.29881e-08)
(1.14667 -9.60356e-08 5.9658e-08)
(1.14666 -6.44043e-07 4.35192e-08)
(1.14885 -3.48381e-07 1.22578e-08)
(1.14883 -3.53996e-07 -2.37058e-08)
(1.14881 -2.20453e-07 -5.34391e-08)
(1.14881 3.33649e-09 -6.23151e-08)
(1.14882 2.25517e-07 -4.68307e-08)
(1.14884 3.56403e-07 -1.30102e-08)
(1.14887 3.4784e-07 2.55647e-08)
(1.14888 2.08262e-07 5.35559e-08)
(1.14889 -4.46234e-09 6.03628e-08)
(1.14888 -2.13766e-07 4.40894e-08)
(1.14885 3.02125e-07 1.22641e-08)
(1.14883 2.31223e-07 -2.37199e-08)
(1.14881 6.45143e-08 -5.34446e-08)
(1.14881 -1.23275e-07 -6.23459e-08)
(1.14882 -2.57138e-07 -4.68759e-08)
(1.14884 -2.91433e-07 -1.30353e-08)
(1.14887 -2.18741e-07 2.5576e-08)
(1.14888 -6.67763e-08 5.35933e-08)
(1.14889 1.09284e-07 6.04014e-08)
(1.14888 2.50492e-07 4.41089e-08)
(1.14664 9.32639e-07 1.20423e-08)
(1.14661 8.11945e-07 -2.35507e-08)
(1.1466 3.61846e-07 -5.28948e-08)
(1.14659 -2.25634e-07 -6.16825e-08)
(1.1466 -7.12885e-07 -4.63593e-08)
(1.14662 -9.19805e-07 -1.28377e-08)
(1.14665 -7.80679e-07 2.53937e-08)
(1.14666 -3.5378e-07 5.30982e-08)
(1.14667 1.99085e-07 5.97702e-08)
(1.14666 6.87504e-07 4.35753e-08)
(1.14212 1.49331e-06 1.15632e-08)
(1.1421 1.36516e-06 -2.32144e-08)
(1.14208 6.8359e-07 -5.18024e-08)
(1.14207 -2.61857e-07 -6.03196e-08)
(1.14208 -1.08594e-06 -4.52585e-08)
(1.1421 -1.48009e-06 -1.23879e-08)
(1.14212 -1.31491e-06 2.50421e-08)
(1.14213 -6.64039e-07 5.20808e-08)
(1.14214 2.23928e-07 5.84602e-08)
(1.14214 1.04101e-06 4.24634e-08)
(1.13517 1.94485e-06 1.07823e-08)
(1.13515 1.86855e-06 -2.27511e-08)
(1.13514 1.03281e-06 -5.02005e-08)
(1.13513 -2.05004e-07 -5.82633e-08)
(1.13513 -1.33588e-06 -4.35488e-08)
(1.13514 -1.93373e-06 -1.16414e-08)
(1.13516 -1.79934e-06 2.45679e-08)
(1.13517 -1.00025e-06 5.05698e-08)
(1.13518 1.57529e-07 5.64733e-08)
(1.13518 1.27057e-06 4.0746e-08)
(1.12568 2.26318e-06 9.66371e-09)
(1.12566 2.30137e-06 -2.22148e-08)
(1.12565 1.40044e-06 -4.81481e-08)
(1.12564 -4.9006e-08 -5.5549e-08)
(1.12563 -1.44411e-06 -4.12302e-08)
(1.12564 -2.25679e-06 -1.05637e-08)
(1.12565 -2.21376e-06 2.40269e-08)
(1.12567 -1.35348e-06 4.86211e-08)
(1.12568 -5.80702e-09 5.38434e-08)
(1.12568 1.35802e-06 3.84203e-08)
(1.11354 2.43855e-06 8.19971e-09)
(1.11353 2.64434e-06 -2.16559e-08)
(1.11352 1.76594e-06 -4.57188e-08)
(1.11351 1.92347e-07 -5.22461e-08)
(1.1135 -1.41277e-06 -3.83418e-08)
(1.1135 -2.43925e-06 -9.14929e-09)
(1.11351 -2.53976e-06 2.34685e-08)
(1.11352 -1.70374e-06 4.63093e-08)
(1.11353 -2.52105e-07 5.06421e-08)
(1.11354 1.3064e-06 3.55247e-08)
(1.09865 2.47107e-06 6.41876e-09)
(1.09865 2.87945e-06 -2.11045e-08)
(1.09864 2.10098e-06 -4.29836e-08)
(1.09862 4.9164e-07 -4.84479e-08)
(1.09861 -1.25836e-06 -3.49604e-08)
(1.09861 -2.48081e-06 -7.4292e-09)
(1.09861 -2.76032e-06 2.29219e-08)
(1.09862 -2.02351e-06 4.37134e-08)
(1.09863 -5.53598e-07 4.69717e-08)
(1.09864 1.13335e-06 3.21378e-08)
(1.08079 2.36719e-06 4.38258e-09)
(1.0808 2.99052e-06 -2.05622e-08)
(1.08079 2.37394e-06 -3.99972e-08)
(1.08078 8.1427e-07 -4.42642e-08)
(1.08077 -1.00558e-06 -3.11908e-08)
(1.08076 -2.38746e-06 -5.46667e-09)
(1.08076 -2.86048e-06 2.23915e-08)
(1.08076 -2.28214e-06 4.09041e-08)
(1.08077 -8.75435e-07 4.29281e-08)
(1.08078 8.64908e-07 2.83646e-08)
(1.05959 2.13894e-06 2.18012e-09)
(1.0596 2.9648e-06 -1.99992e-08)
(1.0596 2.55319e-06 -3.6792e-08)
(1.05959 1.12245e-06 -3.97602e-08)