/*--------------------------------*- C++ -*----------------------------------*\
| =========                 |                                                 |
| \\      /  F ield         | OpenFOAM: The Open Source CFD Toolbox           |
|  \\    /   O peration     | Version:  2.3.0                                 |
|   \\  /    A nd           | Web:      www.OpenFOAM.org                      |
|    \\/     M anipulation  |                                                 |
\*---------------------------------------------------------------------------*/
FoamFile
{
    version     2.0;
    format      ascii;
    class       surfaceScalarField;
    location    "600";
    object      phi;
}
// * * * * * * * * * * * * * * * * * * * * * * * * * * * * * * * * * * * * * //

dimensions      [0 3 -1 0 0 0 0];

internalField   nonuniform List<scalar> 
16700
(
0.0206211
-1.93683e-08
-1.43531e-10
0.0206211
5.27202e-09
-2.62263e-10
0.0206211
2.6346e-08
-2.38619e-10
0.020621
3.5564e-08
-2.61073e-10
0.020621
3.21827e-08
-1.18791e-10
0.020621
1.89128e-08
3.17804e-10
0.020621
-1.74171e-09
4.51917e-10
0.020621
-2.49017e-08
1.52707e-10
0.0206211
-3.74286e-08
5.53108e-11
-3.48391e-08
4.02012e-11
0.0242785
-3.67498e-08
-1.53715e-10
0.0242785
-9.97159e-10
-2.85937e-10
0.0242785
3.31574e-08
-2.69055e-10
0.0242785
5.27331e-08
-2.81034e-10
0.0242785
5.32293e-08
-1.37341e-10
0.0242784
3.6752e-08
2.99086e-10
0.0242784
5.8666e-09
4.71694e-10
0.0242784
-3.17192e-08
2.12399e-10
0.0242785
-5.5518e-08
8.78724e-11
-5.67565e-08
4.64979e-11
0.0260793
-5.097e-08
-1.50801e-10
0.0260793
-8.85723e-09
-2.91635e-10
0.0260793
3.43865e-08
-2.83179e-10
0.0260793
6.25233e-08
-2.90415e-10
0.0260792
6.77964e-08
-1.4768e-10
0.0260792
5.09782e-08
2.76651e-10
0.0260792
1.44158e-08
4.66154e-10
0.0260792
-3.27064e-08
2.4384e-10
0.0260792
-6.56461e-08
1.12807e-10
-7.1925e-08
5.56247e-11
0.0273362
-6.23633e-08
-1.43315e-10
0.0273362
-1.65312e-08
-2.91571e-10
0.0273362
3.31829e-08
-2.92611e-10
0.0273362
6.82216e-08
-2.98791e-10
0.0273362
7.81381e-08
-1.5689e-10
0.0273362
6.22024e-08
2.56185e-10
0.0273362
2.24045e-08
4.55612e-10
0.0273362
-3.12316e-08
2.63086e-10
0.0273362
-7.13818e-08
1.3389e-10
-8.26494e-08
6.66744e-11
0.0283061
-7.14257e-08
-1.33664e-10
0.0283061
-2.34475e-08
-2.8832e-10
0.0283061
3.09358e-08
-2.98927e-10
0.0283061
7.15005e-08
-3.06259e-10
0.0283061
8.55999e-08
-1.65483e-10
0.0283061
7.10459e-08
2.3734e-10
0.0283061
2.94163e-08
4.4294e-10
0.0283061
-2.87584e-08
2.75301e-10
0.0283061
-7.45482e-08
1.51646e-10
-9.03308e-08
7.8293e-11
0.0290976
-7.86259e-08
-1.2288e-10
0.0290976
-2.94541e-08
-2.83081e-10
0.0290977
2.83393e-08
-3.02979e-10
0.0290977
7.33263e-08
-3.12881e-10
0.0290976
9.10624e-08
-1.73622e-10
0.0290976
7.80291e-08
2.19912e-10
0.0290976
3.53912e-08
4.29419e-10
0.0290976
-2.59957e-08
2.82923e-10
0.0290976
-7.61909e-08
1.66536e-10
-9.58984e-08
8.98745e-11
0.0297692
-8.43635e-08
-1.11531e-10
0.0297692
-3.45676e-08
-2.76503e-10
0.0297692
2.57515e-08
-3.05274e-10
0.0297692
7.42902e-08
-3.18659e-10
0.0297692
9.51282e-08
-1.81309e-10
0.0297692
8.35701e-08
2.03674e-10
0.0297692
4.04008e-08
4.15601e-10
0.0297692
-2.32964e-08
2.8736e-10
0.0297692
-7.69431e-08
1.78999e-10
-9.99917e-08
1.01084e-10
0.030355
-8.89678e-08
-9.9973e-11
0.030355
-3.88745e-08
-2.68985e-10
0.030355
2.33525e-08
-3.06134e-10
0.030355
7.47656e-08
-3.23571e-10
0.030355
9.82223e-08
-1.88492e-10
0.030355
8.80035e-08
1.88439e-10
0.0303549
4.45648e-08
4.01731e-10
0.0303549
-2.08302e-08
2.89488e-10
0.0303549
-7.72e-08
1.8939e-10
-1.03063e-07
1.11709e-10
0.0308753
-9.27103e-08
-8.84723e-11
0.0308753
-4.24887e-08
-2.60818e-10
0.0308753
2.12229e-08
-3.05792e-10
0.0308753
7.49929e-08
-3.27607e-10
0.0308753
1.00652e-07
-1.95105e-10
0.0308753
9.15989e-08
1.74124e-10
0.0308753
4.80172e-08
3.87971e-10
0.0308753
-1.86664e-08
2.89865e-10
0.0308753
-7.72126e-08
1.97966e-10
-1.05438e-07
1.21596e-10
0.0313448
-9.58106e-08
-7.71955e-11
0.0313448
-4.55291e-08
-2.52212e-10
0.0313448
1.93857e-08
-3.04438e-10
0.0313448
7.51252e-08
-3.30789e-10
0.0313448
1.02642e-07
-2.01107e-10
0.0313448
9.45725e-08
1.60668e-10
0.0313448
5.08888e-08
3.74413e-10
0.0313448
-1.68186e-08
2.88876e-10
0.0313448
-7.71387e-08
2.0495e-10
-1.07354e-07
1.30678e-10
0.0317735
-9.8446e-08
-6.62677e-11
0.0317735
-4.81099e-08
-2.43328e-10
0.0317735
1.78308e-08
-3.02223e-10
0.0317735
7.52581e-08
-3.33141e-10
0.0317735
1.04355e-07
-2.06461e-10
0.0317735
9.7097e-08
1.48027e-10
0.0317735
5.33002e-08
3.61107e-10
0.0317735
-1.52692e-08
2.86802e-10
0.0317735
-7.70749e-08
2.10527e-10
-1.08983e-07
1.38912e-10
0.0321681
-1.00759e-07
-5.57994e-11
0.0321681
-5.03362e-08
-2.34316e-10
0.0321681
1.65293e-08
-2.99286e-10
0.0321681
7.54478e-08
-3.34698e-10
0.0321681
1.0591e-07
-2.11133e-10
0.0321681
9.93112e-08
1.36206e-10
0.0321681
5.536e-08
3.48125e-10
0.0321681
-1.39833e-08
2.83857e-10
0.0321681
-7.7077e-08
2.1484e-10
-1.10449e-07
1.46271e-10
0.0325345
-1.02863e-07
-4.58401e-11
0.0325345
-5.2301e-08
-2.2528e-10
0.0325345
1.54426e-08
-2.95752e-10
0.0325345
7.57241e-08
-3.35525e-10
0.0325345
1.07392e-07
-2.15127e-10
0.0325345
1.01324e-07
1.25198e-10
0.0325345
5.71628e-08
3.35513e-10
0.0325345
-1.29183e-08
2.80191e-10
0.0325345
-7.71733e-08
2.18023e-10
-1.11841e-07
1.52784e-10
0.0328781
-1.04846e-07
-3.64027e-11
0.0328781
-5.40847e-08
-2.16276e-10
0.0328781
1.45286e-08
-2.91708e-10
0.0328781
7.60981e-08
-3.35671e-10
0.0328781
1.0886e-07
-2.1845e-10
0.0328781
1.03222e-07
1.14955e-10
0.0328781
5.87894e-08
3.23251e-10
0.0328781
-1.20292e-08
2.75926e-10
0.0328781
-7.73735e-08
2.20203e-10
-1.13222e-07
1.58484e-10
0.0332017
-1.06777e-07
-2.75477e-11
0.0332017
-5.57571e-08
-2.07396e-10
0.0332017
1.37431e-08
-2.87247e-10
0.0332017
7.65678e-08
-3.35167e-10
0.0332017
1.10355e-07
-2.21082e-10
0.0332017
1.05072e-07
1.05478e-10
0.0332017
6.03094e-08
3.11371e-10
0.0332017
-1.12699e-08
2.71192e-10
0.0332017
-7.7674e-08
2.21481e-10
-1.1463e-07
1.63365e-10
0.0335064
-1.08708e-07
-1.93311e-11
0.0335064
-5.73776e-08
-1.98746e-10
0.0335064
1.30424e-08
-2.82483e-10
0.0335064
7.71216e-08
-3.34084e-10
0.0335064
1.11901e-07
-2.2303e-10
0.0335064
1.06924e-07
9.68112e-11
0.0335064
6.17816e-08
2.9996e-10
0.0335064
-1.05955e-08
2.66107e-10
0.0335064
-7.80617e-08
2.21948e-10
-1.16093e-07
1.67445e-10
0.0337945
-1.10679e-07
-1.17577e-11
0.0337945
-5.89956e-08
-1.90385e-10
0.0337945
1.23853e-08
-2.77512e-10
0.0337945
7.7742e-08
-3.32499e-10
0.0337945
1.1351e-07
-2.24322e-10
0.0337945
1.08816e-07
8.89543e-11
0.0337945
6.32548e-08
2.89052e-10
0.0337945
-9.96415e-09
2.60754e-10
0.0337945
-7.85182e-08
2.21698e-10
-1.17621e-07
1.70777e-10
0.0340675
-1.12715e-07
-4.84849e-12
0.0340675
-6.06516e-08
-1.8237e-10
0.0340675
1.17333e-08
-2.72418e-10
0.0340675
7.84074e-08
-3.30473e-10
0.0340675
1.15185e-07
-2.24976e-10
0.0340675
1.10774e-07
8.18953e-11
0.0340675
6.47688e-08
2.78665e-10
0.0340675
-9.33699e-09
2.55236e-10
0.0340675
-7.90208e-08
2.20829e-10
-1.19218e-07
1.7339e-10
0.0343249
-1.14835e-07
1.327e-12
0.0343249
-6.23781e-08
-1.74801e-10
0.0343249
1.1051e-08
-2.6731e-10
0.0343249
7.9093e-08
-3.28079e-10
0.0343249
1.16921e-07
-2.25006e-10
0.0343249
1.12814e-07
7.56559e-11
0.0343249
6.63556e-08
2.68874e-10
0.0343249
-8.67853e-09
2.49692e-10
0.0343249
-7.9544e-08
2.19447e-10
-1.20878e-07
1.753e-10
0.0345653
-1.17046e-07
6.56401e-12
0.0345653
-6.41998e-08
-1.67794e-10
0.0345653
1.03074e-08
-2.62336e-10
0.0345653
7.97734e-08
-3.25437e-10
0.0345653
1.18709e-07
-2.24467e-10
0.0345653
1.14946e-07
7.02789e-11
0.0345653
6.80392e-08
2.59798e-10
0.0345653
-7.95783e-09
2.44263e-10
0.0345653
-8.00619e-08
2.1767e-10
-1.22591e-07
1.76562e-10
0.0347886
-1.1935e-07
1.13233e-11
0.0347886
-6.6134e-08
-1.61423e-10
0.0347886
9.47614e-09
-2.5762e-10
0.0347886
8.04235e-08
-3.22673e-10
0.0347886
1.20533e-07
-2.2343e-10
0.0347886
1.1717e-07
6.57684e-11
0.0347886
6.98368e-08
2.5151e-10
0.0347886
-7.14868e-09
2.3906e-10
0.0347886
-8.05491e-08
2.15618e-10
-1.24343e-07
1.77256e-10
0.0349942
-1.21746e-07
1.53567e-11
0.0349942
-6.81926e-08
-1.55756e-10
0.0349942
8.53526e-09
-2.53282e-10
0.0349942
8.10197e-08
-3.19903e-10
0.0349942
1.22377e-07
-2.21964e-10
0.0349942
1.19485e-07
6.21135e-11
0.0349942
7.17597e-08
2.44067e-10
0.0349942
-6.22929e-09
2.3421e-10
0.0349942
-8.09818e-08
2.13416e-10
-1.26116e-07
1.77456e-10
0.0351809
-1.24224e-07
1.8678e-11
0.0351809
-7.03821e-08
-1.50865e-10
0.0351809
7.46725e-09
-2.4945e-10
0.0351809
8.15404e-08
-3.17265e-10
0.0351809
1.24225e-07
-2.20162e-10
0.0351809
1.21881e-07
5.9304e-11
0.0351809
7.38142e-08
2.37541e-10
0.0351809
-5.18233e-09
2.29839e-10
0.0351809
-8.13382e-08
2.11201e-10
-1.27893e-07
1.77256e-10
0.0353482
-1.26778e-07
2.13547e-11
0.0353482
-7.27054e-08
-1.46797e-10
0.0353482
6.25816e-09
-2.46239e-10
0.0353482
8.19661e-08
-3.14892e-10
0.0353482
1.26057e-07
-2.18119e-10
0.0353482
1.24352e-07
5.73096e-11
0.0353482
7.60031e-08
2.31974e-10
0.0353482
-3.99402e-09
2.26057e-10
0.0353482
-8.15987e-08
2.09104e-10
-1.29656e-07
1.76756e-10
0.0354949
-1.29394e-07
2.32608e-11
0.0354949
-7.51625e-08
-1.436e-10
0.0354949
4.89726e-09
-2.43756e-10
0.0354949
8.22795e-08
-3.12908e-10
0.0354949
1.27858e-07
-2.15923e-10
0.0354949
1.26885e-07
5.60946e-11
0.0354949
7.83262e-08
2.27406e-10
0.0354949
-2.65377e-09
2.22989e-10
0.0354949
-8.17459e-08
2.07263e-10
-1.31387e-07
1.76043e-10
0.0356194
-1.32063e-07
2.45616e-11
0.0356194
-7.77509e-08
-1.41329e-10
0.0356194
3.37711e-09
-2.42118e-10
0.0356194
8.24663e-08
-3.11451e-10
0.0356194
1.29611e-07
-2.13684e-10
0.0356194
1.2947e-07
5.56296e-11
0.0356194
8.0781e-08
2.23891e-10
0.0356194
-1.15426e-09
2.2075e-10
0.0356194
-8.17654e-08
2.05813e-10
-1.33071e-07
1.75222e-10
0.0357208
-1.34773e-07
2.53085e-11
0.0357208
-8.04672e-08
-1.40019e-10
0.0357208
1.69252e-09
-2.41431e-10
0.0357208
8.25146e-08
-3.10657e-10
0.0357208
1.31302e-07
-2.11503e-10
0.0357208
1.32095e-07
5.58875e-11
0.0357208
8.33638e-08
2.21476e-10
0.0357208
5.09612e-10
2.19425e-10
0.0357208
-8.16455e-08
2.04868e-10
-1.34693e-07
1.74405e-10
0.0357984
-1.37515e-07
2.54819e-11
0.0357984
-8.33081e-08
-1.39696e-10
0.0357984
-1.60941e-10
-2.41777e-10
0.0357984
8.24142e-08
-3.10629e-10
0.0357984
1.3292e-07
-2.09453e-10
0.0357984
1.34751e-07
5.68342e-11
0.0357984
8.60715e-08
2.20174e-10
0.0357984
2.34219e-09
2.19101e-10
0.0357984
-8.13758e-08
2.04536e-10
-1.36242e-07
1.73667e-10
0.0358509
-1.40281e-07
2.50811e-11
0.0358509
-8.6271e-08
-1.4038e-10
0.0358509
-2.18653e-09
-2.432e-10
0.0358509
8.21572e-08
-3.11431e-10
0.0358509
1.34453e-07
-2.07584e-10
0.0358509
1.37431e-07
5.84271e-11
0.0358509
8.89012e-08
2.19988e-10
0.0358509
4.34668e-09
2.19877e-10
0.0358509
-8.09484e-08
2.04915e-10
-1.37707e-07
1.7304e-10
0.0358771
-1.43065e-07
2.41114e-11
0.0358771
-8.93527e-08
-1.42084e-10
0.0358771
-4.38472e-09
-2.45732e-10
0.0358771
8.17396e-08
-3.13116e-10
0.0358771
1.35898e-07
-2.05957e-10
0.0358771
1.40128e-07
6.0634e-11
0.0358771
9.18499e-08
2.20937e-10
0.0358771
6.52353e-09
2.21789e-10
0.0358771
-8.03596e-08
2.06055e-10
-1.39082e-07
1.72575e-10
0.0358771
-1.45866e-07
2.26925e-11
0.0358771
-9.25518e-08
-1.44823e-10
0.0358771
-6.75532e-09
-2.49436e-10
0.0358771
8.11603e-08
-3.15748e-10
0.0358771
1.37252e-07
-2.04625e-10
0.0358771
1.42841e-07
6.3474e-11
0.0358771
9.4916e-08
2.23068e-10
0.0358771
8.87255e-09
2.24816e-10
0.0358771
-7.96082e-08
2.07962e-10
-1.40366e-07
1.7235e-10
0.0358509
-1.48684e-07
2.0761e-11
0.0358509
-9.58705e-08
-1.48645e-10
0.0358509
-9.3007e-09
-2.54375e-10
0.0358509
8.0418e-08
-3.1937e-10
0.0358509
1.38514e-07
-2.03565e-10
0.0358509
1.4557e-07
6.69982e-11
0.0358509
9.81017e-08
2.26419e-10
0.0358508
1.13961e-08
2.29005e-10
0.0358508
-7.86926e-08
2.10667e-10
-1.41558e-07
1.72357e-10
0.0357984
-1.51525e-07
1.82139e-11
0.0357984
-9.93138e-08
-1.5354e-10
0.0357984
-1.20235e-08
-2.60488e-10
0.0357984
7.95133e-08
-3.23926e-10
0.0357984
1.3969e-07
-2.02719e-10
0.0357984
1.48322e-07
7.12055e-11
0.0357984
1.01412e-07
2.30958e-10
0.0357984
1.40968e-08
2.34378e-10
0.0357984
-7.76139e-08
2.14155e-10
-1.42663e-07
1.72511e-10
0.0357208
-1.54399e-07
1.49939e-11
0.0357208
-1.02888e-07
-1.5945e-10
0.0357208
-1.49244e-08
-2.67669e-10
0.0357208
7.84514e-08
-3.2931e-10
0.0357208
1.40787e-07
-2.02036e-10
0.0357208
1.51106e-07
7.60818e-11
0.0357208
1.04854e-07
2.36628e-10
0.0357208
1.69754e-08
2.40833e-10
0.0357208
-7.63773e-08
2.18327e-10
-1.43689e-07
1.72752e-10
0.0356194
-1.57319e-07
1.13068e-11
0.0356194
-1.06602e-07
-1.66359e-10
0.0356194
-1.80038e-08
-2.75876e-10
0.0356194
7.72408e-08
-3.35444e-10
0.0356194
1.4182e-07
-2.0145e-10
0.0356194
1.53935e-07
8.16777e-11
0.0356194
1.08436e-07
2.43424e-10
0.0356194
2.00323e-08
2.48271e-10
0.0356194
-7.49911e-08
2.23075e-10
-1.4465e-07
1.73034e-10
0.0354949
-1.60305e-07
6.60283e-12
0.0354949
-1.10468e-07
-1.74282e-10
0.0354949
-2.12623e-08
-2.85078e-10
0.0354949
7.58922e-08
-3.42255e-10
0.0354949
1.42807e-07
-2.00861e-10
0.0354949
1.56829e-07
8.80727e-11
0.0354949
1.12169e-07
2.51363e-10
0.0354949
2.32678e-08
2.56643e-10
0.0354949
-7.34664e-08
2.28313e-10
-1.45564e-07
1.73269e-10
0.0353482
-1.63379e-07
2.16804e-12
0.0353482
-1.145e-07
-1.83199e-10
0.0353482
-2.46988e-08
-2.95184e-10
0.0353482
7.44211e-08
-3.49626e-10
0.0353482
1.43772e-07
-2.00157e-10
0.0353482
1.59811e-07
9.53193e-11
0.0353482
1.16068e-07
2.60417e-10
0.0353482
2.6681e-08
2.65874e-10
0.0353482
-7.18184e-08
2.33927e-10
-1.46456e-07
1.73339e-10
0.0351809
-1.66568e-07
-3.46054e-12
0.0351809
-1.18709e-07
-1.93048e-10
0.0351809
-2.83085e-08
-3.06065e-10
0.0351809
7.2849e-08
-3.57407e-10
0.0351809
1.44746e-07
-1.99227e-10
0.0351809
1.62906e-07
1.03445e-10
0.0351809
1.20145e-07
2.70526e-10
0.0351809
3.02666e-08
2.75837e-10
0.0351809
-7.00686e-08
2.39772e-10
-1.47355e-07
1.73133e-10
0.0349941
-1.69902e-07
-9.94883e-12
0.0349941
-1.2311e-07
-2.03793e-10
0.0349941
-3.20813e-08
-3.17623e-10
0.0349941
7.12045e-08
-3.65468e-10
0.0349941
1.45762e-07
-1.97964e-10
0.0349941
1.66145e-07
1.12498e-10
0.0349941
1.24413e-07
2.81651e-10
0.0349941
3.40144e-08
2.86414e-10
0.0349941
-6.82454e-08
2.45709e-10
-1.48296e-07
1.72552e-10
0.0347886
-1.73412e-07
-1.7288e-11
0.0347886
-1.2771e-07
-2.15419e-10
0.0347886
-3.60001e-08
-3.2977e-10
0.0347886
6.95245e-08
-3.73691e-10
0.0347886
1.46866e-07
-1.96256e-10
0.0347886
1.6956e-07
1.22535e-10
0.0347886
1.2888e-07
2.93767e-10
0.0347886
3.79072e-08
2.97515e-10
0.0347886
-6.63854e-08
2.51613e-10
-1.49321e-07
1.71485e-10
0.0345653
-1.77129e-07
-2.54834e-11
0.0345653
-1.32513e-07
-2.27855e-10
0.0345653
-4.00375e-08
-3.42373e-10
0.0345653
6.78563e-08
-3.81931e-10
0.0345653
1.48104e-07
-1.94e-10
0.0345653
1.73181e-07
1.33574e-10
0.0345653
1.33547e-07
3.068e-10
0.0345653
4.19171e-08
3.09008e-10
0.0345653
-6.45352e-08
2.57342e-10
-1.5048e-07
1.6983e-10
0.0343249
-1.81083e-07
-3.45418e-11
0.0343249
-1.37512e-07
-2.41055e-10
0.0343249
-4.4153e-08
-3.55325e-10
0.0343249
6.62587e-08
-3.90066e-10
0.0343249
1.49532e-07
-1.91107e-10
0.0343249
1.77037e-07
1.45641e-10
0.0343249
1.38408e-07
3.20694e-10
0.0343248
4.60035e-08
3.20774e-10
0.0343248
-6.27527e-08
2.62763e-10
-1.51825e-07
1.67498e-10
0.0340675
-1.85296e-07
-4.44833e-11
0.0340675
-1.42686e-07
-2.54944e-10
0.0340675
-4.82897e-08
-3.6851e-10
0.0340675
6.48031e-08
-3.97977e-10
0.0340675
1.51208e-07
-1.87488e-10
0.0340675
1.8115e-07
1.58757e-10
0.0340675
1.4344e-07
3.3539e-10
0.0340675
5.01098e-08
3.32707e-10
0.0340675
-6.11081e-08
2.67756e-10
-1.53413e-07
1.64398e-10
0.0337945
-1.89781e-07
-5.52642e-11
0.0337945
-1.47995e-07
-2.69386e-10
0.0337945
-5.23714e-08
-3.81748e-10
0.0337945
6.35731e-08
-4.05516e-10
0.0337945
1.53189e-07
-1.83082e-10
0.0337945
1.85531e-07
1.72868e-10
0.0337945
1.48603e-07
3.50752e-10
0.0337945
5.41604e-08
3.44636e-10
0.0337945
-5.96832e-08
2.72175e-10
-1.55304e-07
1.60463e-10
0.0335064
-1.94533e-07
-6.68331e-11
0.0335064
-1.53377e-07
-2.84274e-10
0.0335064
-5.63006e-08
-3.94924e-10
0.0335064
6.26631e-08
-4.12571e-10
0.0335064
1.5553e-07
-1.77843e-10
0.0335064
1.90172e-07
1.87953e-10
0.0335064
1.53832e-07
3.66687e-10
0.0335064
5.80591e-08
3.5642e-10
0.0335064
-5.857e-08
2.759e-10
-1.5755e-07
1.55653e-10
0.0332016
-1.99525e-07
-7.91983e-11
0.0332016
-1.58741e-07
-2.9959e-10
0.0332016
-5.99546e-08
-4.07994e-10
0.0332016
6.21788e-08
-4.1908e-10
0.0332016
1.58277e-07
-1.71704e-10
0.0332016
1.95045e-07
2.04066e-10
0.0332016
1.59035e-07
3.83187e-10
0.0332016
6.16855e-08
3.67985e-10
0.0332016
-5.78713e-08
2.78835e-10
-1.60199e-07
1.49907e-10
0.0328781
-2.04702e-07
-9.23901e-11
0.0328781
-1.63956e-07
-3.15309e-10
0.0328781
-6.31804e-08
-4.20893e-10
0.0328781
6.2237e-08
-4.24974e-10
0.0328781
1.61466e-07
-1.64588e-10
0.0328781
2.00089e-07
2.21265e-10
0.0328781
1.64081e-07
4.00243e-10
0.0328781
6.48906e-08
3.79263e-10
0.0328781
-5.77012e-08
2.80881e-10
-1.63289e-07
1.43141e-10
0.0325344
-2.09967e-07
-1.0637e-10
0.0325344
-1.68849e-07
-3.31327e-10
0.0325344
-6.57925e-08
-4.33495e-10
0.0325344
6.29599e-08
-4.30157e-10
0.0325344
1.65107e-07
-1.56451e-10
0.0325344
2.05202e-07
2.39534e-10
0.0325344
1.68797e-07
4.17765e-10
0.0325344
6.74947e-08
3.90117e-10
0.0325344
-5.81787e-08
2.81915e-10
-1.66833e-07
1.35306e-10
0.0321681
-2.15167e-07
-1.211e-10
0.0321681
-1.73188e-07
-3.47583e-10
0.0321681
-6.75699e-08
-4.45727e-10
0.0321681
6.44696e-08
-4.34549e-10
0.0321681
1.69176e-07
-1.47229e-10
0.0321681
2.10225e-07
2.58907e-10
0.0321681
1.72953e-07
4.35706e-10
0.032168
6.9285e-08
4.0042e-10
0.032168
-5.94239e-08
2.81811e-10
-1.70816e-07
1.26354e-10
0.0317735
-2.20075e-07
-1.36622e-10
0.0317735
-1.76665e-07
-3.64084e-10
0.0317735
-6.8247e-08
-4.5755e-10
0.0317735
6.68834e-08
-4.38076e-10
0.0317735
1.73598e-07
-1.36799e-10
0.0317735
2.14925e-07
2.79527e-10
0.0317734
1.7625e-07
4.54092e-10
0.0317734
7.00072e-08
4.10069e-10
0.0317734
-6.15543e-08
2.80418e-10
-1.75172e-07
1.16176e-10
0.0313447
-2.24361e-07
-1.52935e-10
0.0313447
-1.7888e-07
-3.80754e-10
0.0313447
-6.75126e-08
-4.68847e-10
0.0313447
7.02974e-08
-4.40626e-10
0.0313447
1.78219e-07
-1.25036e-10
0.0313447
2.18965e-07
3.01483e-10
0.0313447
1.78298e-07
4.72869e-10
0.0313447
6.93651e-08
4.18887e-10
0.0313447
-6.46697e-08
2.77546e-10
-1.79765e-07
1.0467e-10
0.0308753
-2.27551e-07
-1.6996e-10
0.0308753
-1.79318e-07
-3.97455e-10
0.0308753
-6.50144e-08
-4.79458e-10
0.0308753
7.47565e-08
-4.42051e-10
0.0308753
1.82767e-07
-1.1182e-10
0.0308753
2.21868e-07
3.24824e-10
0.0308753
1.78602e-07
4.91897e-10
0.0308753
6.70245e-08
4.26604e-10
0.0308753
-6.88273e-08
2.72969e-10
-1.84347e-07
9.17708e-11
0.0303549
-2.28975e-07
-1.87612e-10
0.0303549
-1.77313e-07
-4.14053e-10
0.0303549
-6.03659e-08
-4.89216e-10
0.0303549
8.02127e-08
-4.42165e-10
0.0303549
1.8679e-07
-9.69686e-11
0.0303549
2.22967e-07
3.49654e-10
0.0303549
1.76535e-07
5.11015e-10
0.0303549
6.26193e-08
4.3288e-10
0.0303549
-7.40048e-08
2.66399e-10
-1.885e-07
7.73919e-11
0.0297691
-2.27675e-07
-2.05756e-10
0.0297691
-1.72013e-07
-4.30349e-10
0.0297691
-5.31685e-08
-4.9788e-10
0.0297691
8.64489e-08
-4.40708e-10
0.0297691
1.89564e-07
-8.02433e-11
0.0297691
2.21326e-07
3.7608e-10
0.0297691
1.71296e-07
5.29951e-10
0.0297691
5.57704e-08
4.37229e-10
0.0297691
-8.00347e-08
2.57469e-10
-1.91543e-07
6.14441e-11
0.0290976
-2.22283e-07
-2.24115e-10
0.0290976
-1.62333e-07
-4.46026e-10
0.0290976
-4.30717e-08
-5.05104e-10
0.0290975
9.29437e-08
-4.37298e-10
0.0290975
1.8994e-07
-6.14074e-11
0.0290976
2.15627e-07
4.0414e-10
0.0290976
1.61885e-07
5.4821e-10
0.0290976
4.61358e-08
4.38935e-10
0.0290976
-8.64859e-08
2.4572e-10
-1.92382e-07
4.38026e-11
0.028306
-2.1079e-07
-2.42269e-10
0.028306
-1.46886e-07
-4.60647e-10
0.028306
-2.98883e-08
-5.10392e-10
0.028306
9.86215e-08
-4.31318e-10
0.028306
1.86073e-07
-4.01901e-11
0.028306
2.03975e-07
4.33861e-10
0.028306
1.47039e-07
5.64991e-10
0.028306
3.35063e-08
4.36922e-10
0.028306
-9.24446e-08
2.3051e-10
-1.89223e-07
2.46966e-11
0.0273361
-1.90146e-07
-2.59418e-10
0.0273361
-1.23914e-07
-4.73403e-10
0.0273361
-1.38848e-08
-5.12869e-10
0.0273361
1.01338e-07
-4.21687e-10
0.0273361
1.74903e-07
-1.71751e-11
0.0273361
1.83559e-07
4.64986e-10
0.0273361
1.25178e-07
5.78749e-10
0.0273361
1.80439e-08
4.29435e-10
0.0273361
-9.60556e-08
2.10947e-10
-1.79029e-07
4.24284e-12
0.0260791
-1.55489e-07
-2.73827e-10
0.0260791
-9.13108e-08
-4.82655e-10
0.0260791
3.45398e-09
-5.10855e-10
0.0260791
9.67083e-08
-4.06259e-10
0.0260791
1.51077e-07
1.47264e-11
0.0260792
1.50023e-07
4.9634e-10
0.0260792
9.44123e-08
5.86257e-10
0.0260792
9.11548e-10
4.13407e-10
0.0260792
-9.34561e-08
1.85769e-10
-1.56332e-07
-1.70305e-11
0.0242783
-9.82959e-08
-2.808e-10
0.0242783
-4.71018e-08
-4.85025e-10
0.0242783
1.70042e-08
-5.00854e-10
0.0242783
7.48041e-08
-3.79606e-10
0.0242783
1.04074e-07
5.09944e-11
0.0242784
9.58982e-08
5.24201e-10
0.0242784
5.27681e-08
5.80064e-10
0.0242784
-1.37062e-08
3.82371e-10
0.0242784
-7.55497e-08
1.52822e-10
-1.09893e-07
-3.74735e-11
0.0206208
-2.6378e-10
0.0206207
-4.61302e-10
0.0206207
-4.60612e-10
0.0206208
-3.17902e-10
0.0206209
9.87848e-11
0.020621
5.30296e-10
0.0206211
5.29362e-10
0.0206211
3.09338e-10
0.020621
1.02123e-10
-5.3838e-11
0.0206211
-2.08537e-08
-2.82136e-10
0.0206211
4.39086e-09
-4.2067e-10
0.0206211
2.57073e-08
-3.58284e-10
0.020621
3.77408e-08
-2.92804e-10
0.020621
3.63125e-08
-2.27031e-11
0.020621
1.8915e-08
4.03469e-10
0.020621
-4.67254e-09
4.23096e-10
0.020621
-2.40648e-08
2.88671e-10
0.020621
-3.64694e-08
2.21675e-10
-3.70042e-08
3.16627e-11
0.0242785
-3.90775e-08
-2.81676e-10
0.0242785
-2.57298e-09
-4.63837e-10
0.0242785
3.17946e-08
-4.25227e-10
0.0242785
5.51233e-08
-3.53059e-10
0.0242785
5.91348e-08
-5.46523e-11
0.0242784
3.7847e-08
4.17251e-10
0.0242784
2.31369e-09
4.97603e-10
0.0242784
-3.08954e-08
3.51746e-10
0.0242785
-5.41384e-08
2.60056e-10
-5.95391e-08
5.40325e-11
0.0260793
-5.38186e-08
-2.67102e-10
0.0260793
-1.09938e-08
-4.71874e-10
0.0260793
3.24312e-08
-4.53212e-10
0.0260793
6.47377e-08
-3.84555e-10
0.0260792
7.45178e-08
-8.27711e-11
0.0260792
5.30311e-08
4.01241e-10
0.0260792
1.09534e-08
5.19397e-10
0.0260792
-3.19162e-08
3.8336e-10
0.0260792
-6.40605e-08
2.84765e-10
-7.49057e-08
7.57572e-11
0.0273362
-6.55304e-08
-2.48414e-10
0.0273362
-1.91121e-08
-4.68729e-10
0.0273362
3.07343e-08
-4.6829e-10
0.0273362
7.01264e-08
-4.07132e-10
0.0273362
8.51856e-08
-1.08734e-10
0.0273362
6.49855e-08
3.777e-10
0.0273362
1.93057e-08
5.21991e-10
0.0273362
-3.03928e-08
4.0341e-10
0.0273362
-6.96781e-08
3.06154e-10
-8.56614e-08
9.794e-11
0.0283061
-7.47818e-08
-2.28017e-10
0.0283061
-2.63779e-08
-4.60006e-10
0.0283061
2.80717e-08
-4.76263e-10
0.0283061
7.30527e-08
-4.24574e-10
0.0283061
9.27044e-08
-1.32293e-10
0.0283061
7.4358e-08
3.52288e-10
0.0283061
2.67721e-08
5.15686e-10
0.0283061
-2.77969e-08
4.15759e-10
0.0283061
-7.27561e-08
3.24201e-10
-9.32969e-08
1.19498e-10
0.0290976
-8.20862e-08
-2.07075e-10
0.0290976
-3.26593e-08
-4.48094e-10
0.0290977
2.51217e-08
-4.79562e-10
0.0290976
7.45201e-08
-4.38334e-10
0.0290976
9.80715e-08
-1.53557e-10
0.0290976
8.17126e-08
3.26802e-10
0.0290976
3.32116e-08
5.04563e-10
0.0290976
-2.48625e-08
4.22699e-10
0.0290976
-7.43155e-08
3.39184e-10
-9.87781e-08
1.39842e-10
0.0297692
-8.78703e-08
-1.86189e-10
0.0297692
-3.7989e-08
-4.34222e-10
0.0297692
2.22307e-08
-4.79513e-10
0.0297692
7.51358e-08
-4.49196e-10
0.0297692
1.01955e-07
-1.72713e-10
0.0297692
8.7507e-08
3.01938e-10
0.0297692
3.86612e-08
4.90651e-10
0.0297692
-2.19655e-08
4.25679e-10
0.0297692
-7.49805e-08
3.51407e-10
-1.02761e-07
1.58721e-10
0.0303549
-9.24811e-08
-1.65705e-10
0.030355
-4.24658e-08
-4.1911e-10
0.030355
1.95699e-08
-4.7693e-10
0.030355
7.52799e-08
-4.5764e-10
0.030355
1.04818e-07
-1.89928e-10
0.0303549
9.21068e-08
2.78008e-10
0.0303549
4.32267e-08
4.75095e-10
0.0303549
-1.92926e-08
4.2565e-10
0.0303549
-7.51449e-08
3.61131e-10
-1.05707e-07
1.76021e-10
0.0308753
-9.62011e-08
-1.459e-10
0.0308753
-4.62131e-08
-4.03258e-10
0.0308753
1.72127e-08
-4.72363e-10
0.0308753
7.51949e-08
-4.63976e-10
0.0308753
1.06992e-07
-2.0529e-10
0.0308753
9.5806e-08
2.55221e-10
0.0308753
4.70392e-08
4.58622e-10
0.0308753
-1.69247e-08
4.23275e-10
0.0308753
-7.50613e-08
3.6858e-10
-1.07948e-07
1.91669e-10
0.0313448
-9.92578e-08
-1.26931e-10
0.0313448
-4.93572e-08
-3.86998e-10
0.0313448
1.51766e-08
-4.66209e-10
0.0313448
7.50343e-08
-4.68452e-10
0.0313448
1.08715e-07
-2.18903e-10
0.0313448
9.88386e-08
2.3365e-10
0.0313448
5.02311e-08
4.4167e-10
0.0313448
-1.48829e-08
4.19049e-10
0.0313448
-7.48904e-08
3.73988e-10
-1.09723e-07
2.05671e-10
0.0317735
-1.01834e-07
-1.0891e-10
0.0317735
-5.20173e-08
-3.70575e-10
0.0317735
1.34475e-08
-4.58771e-10
0.0317735
7.48931e-08
-4.71269e-10
0.0317735
1.10159e-07
-2.30858e-10
0.0317735
1.01391e-07
2.13343e-10
0.0317735
5.29266e-08
4.24554e-10
0.0317735
-1.3154e-08
4.1334e-10
0.0317735
-7.47319e-08
3.77551e-10
-1.11208e-07
2.18057e-10
0.0321681
-1.04075e-07
-9.19484e-11
0.0321681
-5.43025e-08
-3.5421e-10
0.0321681
1.19931e-08
-4.50309e-10
0.0321681
7.48267e-08
-4.72592e-10
0.0321681
1.11449e-07
-2.41209e-10
0.0321681
1.03611e-07
1.94358e-10
0.0321681
5.52386e-08
4.07523e-10
0.0321681
-1.17055e-08
4.06457e-10
0.0321681
-7.46442e-08
3.7945e-10
-1.1253e-07
2.28849e-10
0.0325345
-1.06099e-07
-7.60849e-11
0.0325345
-5.63088e-08
-3.38039e-10
0.0325345
1.07726e-08
-4.41014e-10
0.0325345
7.48639e-08
-4.72578e-10
0.0325345
1.12672e-07
-2.50041e-10
0.0325345
1.05615e-07
1.76675e-10
0.0325345
5.7266e-08
3.90703e-10
0.0325345
-1.04962e-08
3.98637e-10
0.0325345
-7.46582e-08
3.79879e-10
-1.1378e-07
2.38118e-10
0.0328781
-1.07994e-07
-6.12912e-11
0.0328781
-5.8119e-08
-3.22121e-10
0.0328781
9.74203e-09
-4.31024e-10
0.0328781
7.50155e-08
-4.71363e-10
0.0328781
1.13892e-07
-2.5746e-10
0.0328781
1.07494e-07
1.60232e-10
0.0328781
5.9093e-08
3.74163e-10
0.0328781
-9.48127e-09
3.90045e-10
0.0328781
-7.47854e-08
3.78985e-10
-1.15022e-07
2.45962e-10
0.0332017
-1.09832e-07
-4.76079e-11
0.0332017
-5.98044e-08
-3.06587e-10
0.0332017
8.85599e-09
-4.20508e-10
0.0332017
7.52787e-08
-4.69073e-10
0.0332017
1.15148e-07
-2.63525e-10
0.0332017
1.09319e-07
1.45062e-10
0.0332017
6.07924e-08
3.5806e-10
0.0332017
-8.61453e-09
3.80852e-10
0.0332017
-7.50237e-08
3.76882e-10
-1.16296e-07
2.52431e-10
0.0335064
-1.11667e-07
-3.50919e-11
0.0335064
-6.14257e-08
-2.91584e-10
0.0335064
8.06988e-09
-4.09645e-10
0.0335064
7.56417e-08
-4.65846e-10
0.0335064
1.16467e-07
-2.68288e-10
0.0335064
1.11144e-07
1.31207e-10
0.0335064
6.24258e-08
3.4253e-10
0.0335064
-7.85073e-09
3.71248e-10
0.0335064
-7.53614e-08
3.73727e-10
-1.17631e-07
2.57577e-10
0.0337945
-1.13538e-07
-2.37225e-11
0.0337945
-6.30334e-08
-2.77172e-10
0.0337945
7.34186e-09
-3.98554e-10
0.0337945
7.60868e-08
-4.61811e-10
0.0337945
1.17862e-07
-2.71833e-10
0.0337945
1.13006e-07
1.18629e-10
0.0337945
6.4044e-08
3.27616e-10
0.0337945
-7.14751e-09
3.61371e-10
0.0337945
-7.57807e-08
3.69667e-10
-1.19039e-07
2.61491e-10
0.0340675
-1.15473e-07
-1.34675e-11
0.0340675
-6.46689e-08
-2.63423e-10
0.0340675
6.63292e-09
-3.87367e-10
0.0340675
7.6592e-08
-4.57097e-10
0.0340675
1.19335e-07
-2.74249e-10
0.0340675
1.14936e-07
1.07312e-10
0.0340675
6.56886e-08
3.13404e-10
0.0340675
-6.46548e-09
3.51348e-10
0.0340675
-7.62597e-08
3.64818e-10
-1.20525e-07
2.6426e-10
0.0343249
-1.17491e-07
-4.32249e-12
0.0343249
-6.63653e-08
-2.50482e-10
0.0343249
5.90724e-09
-3.76282e-10
0.0343249
7.71327e-08
-4.51868e-10
0.0343249
1.20882e-07
-2.75622e-10
0.0343249
1.16949e-07
9.72996e-11
0.0343249
6.7393e-08
3.00067e-10
0.0343249
-5.7685e-09
3.41364e-10
0.0343249
-7.67733e-08
3.59325e-10
-1.22084e-07
2.65965e-10
0.0345653
-1.19602e-07
3.80441e-12
0.0345653
-6.8148e-08
-2.38506e-10
0.0345653
5.13336e-09
-3.65519e-10
0.0345653
7.7683e-08
-4.46322e-10
0.0345653
1.22493e-07
-2.76055e-10
0.0345653
1.19055e-07
8.86249e-11
0.0345653
6.91823e-08
2.87756e-10
0.0345653
-5.02491e-09
3.31638e-10
0.0345653
-7.72955e-08
3.53391e-10
-1.23705e-07
2.66712e-10
0.0347886
-1.21807e-07
1.14947e-11
0.0347886
-7.0035e-08
-2.27576e-10
0.0347886
4.28443e-09
-3.55238e-10
0.0347886
7.82176e-08
-4.40643e-10
0.0347886
1.24153e-07
-2.75672e-10
0.0347886
1.21256e-07
8.12498e-11
0.0347886
7.10748e-08
2.76537e-10
0.0347886
-4.20777e-09
3.22338e-10
0.0347886
-7.7801e-08
3.47208e-10
-1.25375e-07
2.66631e-10
0.0349942
-1.24104e-07
1.70078e-11
0.0349942
-7.20387e-08
-2.17774e-10
0.0349942
3.33797e-09
-3.45609e-10
0.0349942
7.87125e-08
-4.35019e-10
0.0349942
1.25846e-07
-2.74613e-10
0.0349942
1.2355e-07
7.51408e-11
0.0349942
7.30825e-08
2.66501e-10
0.0349942
-3.29454e-09
3.13632e-10
0.0349942
-7.82654e-08
3.40958e-10
-1.27077e-07
2.65861e-10
0.0351809
-1.26484e-07
2.05667e-11
0.0351809
-7.41661e-08
-2.09181e-10
0.0351809
2.27582e-09
-3.36811e-10
0.0351809
7.91454e-08
-4.29661e-10
0.0351809
1.27554e-07
-2.73035e-10
0.0351809
1.25929e-07
7.02507e-11
0.0351809
7.52128e-08
2.57728e-10
0.0351809
-2.26707e-09
3.05697e-10
0.0351809
-7.86666e-08
3.34848e-10
-1.28793e-07
2.6456e-10
0.0353482
-1.2894e-07
2.38383e-11
0.0353482
-7.64205e-08
-2.01836e-10
0.0353482
1.08328e-09
-3.28985e-10
0.0353482
7.94959e-08
-4.24759e-10
0.0353482
1.29258e-07
-2.71098e-10
0.0353482
1.28385e-07
6.65034e-11
0.0353482
7.74688e-08
2.50255e-10
0.0353482
-1.11069e-09
2.98677e-10
0.0353482
-7.8984e-08
3.29067e-10
-1.30504e-07
2.62891e-10
0.0354949
-1.31459e-07
2.61994e-11
0.0354949
-7.88026e-08
-1.95795e-10
0.0354949
-2.5122e-10
-3.22292e-10
0.0354949
7.97459e-08
-4.2051e-10
0.0354949
1.30941e-07
-2.68971e-10
0.0354949
1.30905e-07
6.38366e-11
0.0354949
7.9851e-08
2.44158e-10
0.0354949
1.86175e-10
2.92726e-10
0.0354949
-7.91993e-08
3.23793e-10
-1.32192e-07
2.61015e-10
0.0356194
-1.34031e-07
2.75104e-11
0.0356194
-8.13101e-08
-1.91115e-10
0.0356194
-1.73613e-09
-3.1689e-10
0.0356194
7.98795e-08
-4.17115e-10
0.0356194
1.32585e-07
-2.66822e-10
0.0356194
1.3348e-07
6.21822e-11
0.0356194
8.23573e-08
2.39495e-10
0.0356194
1.63199e-09
2.88002e-10
0.0356194
-7.92968e-08
3.19228e-10
-1.3384e-07
2.59103e-10
0.0357208
-1.36644e-07
2.8162e-11
0.0357208
-8.39399e-08
-1.87809e-10
0.0357208
-3.37783e-09
-3.1289e-10
0.0357208
7.98834e-08
-4.14753e-10
0.0357208
1.34175e-07
-2.64801e-10
0.0357208
1.36096e-07
6.14539e-11
0.0357208
8.49847e-08
2.36264e-10
0.0357208
3.23308e-09
2.84626e-10
0.0357208