/*--------------------------------*- C++ -*----------------------------------*\
| =========                 |                                                 |
| \\      /  F ield         | OpenFOAM: The Open Source CFD Toolbox           |
|  \\    /   O peration     | Version:  2.3.0                                 |
|   \\  /    A nd           | Web:      www.OpenFOAM.org                      |
|    \\/     M anipulation  |                                                 |
\*---------------------------------------------------------------------------*/
FoamFile
{
    version     2.0;
    format      ascii;
    class       volScalarField;
    location    "400";
    object      k;
}
// * * * * * * * * * * * * * * * * * * * * * * * * * * * * * * * * * * * * * //

dimensions      [0 2 -2 0 0 0 0];

internalField   nonuniform List<scalar> 
1800
(
0.00961608
0.00961457
0.00961308
0.00961214
0.0096121
0.00961299
0.00961449
0.00961602
0.00961699
0.00961702
0.00851972
0.00851729
0.00851273
0.00850778
0.00850422
0.00850331
0.00850544
0.00850989
0.00851502
0.0085188
0.00718109
0.00717801
0.00717284
0.00716742
0.00716377
0.00716332
0.00716631
0.00717159
0.0071771
0.00718073
0.00603701
0.00603343
0.00602805
0.00602284
0.00601978
0.00602005
0.0060236
0.00602904
0.00603429
0.00603736
0.00501721
0.00501342
0.00500831
0.0050038
0.00500158
0.00500253
0.00500628
0.00501141
0.00501596
0.00501822
0.00411971
0.004116
0.00411154
0.004108
0.00410672
0.0041082
0.00411187
0.00411634
0.00411993
0.00412128
0.00338299
0.00337957
0.00337596
0.00337354
0.00337321
0.0033751
0.00337848
0.0033821
0.00338458
0.00338499
0.00286191
0.00285882
0.00285607
0.00285471
0.00285523
0.00285744
0.00286051
0.00286328
0.00286472
0.00286427
0.00259559
0.0025927
0.00259049
0.00258979
0.00259085
0.00259327
0.00259614
0.0025984
0.00259917
0.00259817
0.00259558
0.00259269
0.00259048
0.00258978
0.00259085
0.00259327
0.00259615
0.0025984
0.00259918
0.00259817
0.00286191
0.00285881
0.00285605
0.00285469
0.00285522
0.00285745
0.00286052
0.00286331
0.00286474
0.00286428
0.00338299
0.00337955
0.00337594
0.00337352
0.0033732
0.0033751
0.0033785
0.00338212
0.00338461
0.003385
0.00411971
0.00411599
0.00411151
0.00410797
0.0041067
0.00410819
0.00411188
0.00411637
0.00411996
0.0041213
0.00501721
0.0050134
0.00500828
0.00500376
0.00500155
0.00500252
0.00500629
0.00501144
0.00501599
0.00501825
0.00603702
0.00603341
0.00602802
0.00602281
0.00601975
0.00602004
0.0060236
0.00602906
0.00603432
0.00603738
0.0071811
0.007178
0.00717281
0.00716738
0.00716374
0.00716331
0.00716631
0.00717161
0.00717713
0.00718076
0.00851973
0.00851728
0.00851271
0.00850776
0.00850419
0.0085033
0.00850544
0.00850991
0.00851504
0.00851882
0.00961607
0.00961457
0.00961307
0.00961213
0.0096121
0.00961299
0.00961449
0.00961603
0.00961699
0.00961702
0.0096161
0.00961461
0.00961311
0.00961216
0.0096121
0.00961297
0.00961445
0.00961599
0.00961697
0.00961703
0.00851971
0.00851736
0.00851284
0.00850789
0.00850429
0.00850332
0.00850538
0.00850979
0.00851491
0.00851872
0.00718111
0.0071781
0.00717296
0.00716754
0.00716384
0.00716332
0.00716623
0.00717147
0.00717699
0.00718066
0.00603704
0.00603352
0.00602818
0.00602296
0.00601984
0.00602003
0.00602351
0.00602892
0.00603418
0.0060373
0.00501726
0.00501352
0.00500844
0.00500389
0.00500162
0.00500249
0.00500619
0.0050113
0.00501587
0.00501819
0.00411977
0.0041161
0.00411164
0.00410807
0.00410674
0.00410815
0.00411178
0.00411624
0.00411986
0.00412127
0.00338305
0.00337965
0.00337605
0.00337359
0.00337321
0.00337504
0.0033784
0.00338202
0.00338454
0.003385
0.00286198
0.0028589
0.00285613
0.00285473
0.00285521
0.00285738
0.00286044
0.00286323
0.00286471
0.0028643
0.00259566
0.00259277
0.00259053
0.00258979
0.00259081
0.00259321
0.00259608
0.00259835
0.00259917
0.00259821
0.00259565
0.00259276
0.00259053
0.00258978
0.00259081
0.00259321
0.00259608
0.00259836
0.00259918
0.00259822
0.00286198
0.00285888
0.00285611
0.00285471
0.0028552
0.00285738
0.00286045
0.00286325
0.00286473
0.00286431
0.00338305
0.00337964
0.00337602
0.00337356
0.00337319
0.00337504
0.00337842
0.00338205
0.00338457
0.00338501
0.00411977
0.00411609
0.00411161
0.00410804
0.00410672
0.00410814
0.00411179
0.00411627
0.00411989
0.00412129
0.00501726
0.0050135
0.0050084
0.00500386
0.00500159
0.00500248
0.0050062
0.00501132
0.0050159
0.00501822
0.00603705
0.00603351
0.00602815
0.00602292
0.00601981
0.00602002
0.00602351
0.00602894
0.00603421
0.00603733
0.00718111
0.00717809
0.00717294
0.00716751
0.00716381
0.0071633
0.00716623
0.00717149
0.00717701
0.00718069
0.00851972
0.00851735
0.00851282
0.00850787
0.00850427
0.00850331
0.00850538
0.0085098
0.00851493
0.00851874
0.0096161
0.0096146
0.0096131
0.00961216
0.0096121
0.00961297
0.00961446
0.009616
0.00961698
0.00961703
0.00961611
0.00961463
0.00961313
0.00961217
0.0096121
0.00961296
0.00961444
0.00961597
0.00961696
0.00961703
0.0085197
0.00851739
0.00851291
0.00850797
0.00850435
0.00850334
0.00850535
0.00850972
0.00851484
0.00851867
0.0071811
0.00717815
0.00717304
0.00716762
0.0071639
0.00716333
0.00716619
0.0071714
0.00717691
0.00718061
0.00603705
0.00603358
0.00602826
0.00602304
0.00601988
0.00602003
0.00602346
0.00602884
0.0060341
0.00603726
0.00501728
0.00501358
0.00500852
0.00500397
0.00500165
0.00500248
0.00500614
0.00501123
0.00501581
0.00501817
0.0041198
0.00411616
0.00411172
0.00410813
0.00410676
0.00410813
0.00411172
0.00411618
0.00411981
0.00412125
0.00338309
0.00337971
0.0033761
0.00337363
0.00337321
0.00337501
0.00337835
0.00338197
0.00338451
0.003385
0.00286202
0.00285895
0.00285618
0.00285475
0.0028552
0.00285735
0.00286039
0.00286319
0.00286469
0.00286431
0.0025957
0.00259282
0.00259057
0.0025898
0.0025908
0.00259317
0.00259604
0.00259833
0.00259917
0.00259824
0.0025957
0.00259281
0.00259056
0.0025898
0.00259079
0.00259317
0.00259604
0.00259833
0.00259917
0.00259824
0.00286202
0.00285894
0.00285616
0.00285473
0.00285519
0.00285735
0.00286041
0.00286321
0.00286471
0.00286432
0.00338309
0.0033797
0.00337608
0.0033736
0.0033732
0.00337501
0.00337837
0.003382
0.00338454
0.00338502
0.0041198
0.00411615
0.00411169
0.0041081
0.00410674
0.00410812
0.00411174
0.00411621
0.00411984
0.00412128
0.00501728
0.00501357
0.00500849
0.00500393
0.00500163
0.00500247
0.00500615
0.00501125
0.00501584
0.00501819
0.00603706
0.00603357
0.00602824
0.00602301
0.00601985
0.00602002
0.00602346
0.00602886
0.00603413
0.00603729
0.00718111
0.00717814
0.00717302
0.00716759
0.00716387
0.00716331
0.00716619
0.00717142
0.00717693
0.00718064
0.00851971
0.00851738
0.00851289
0.00850794
0.00850433
0.00850332
0.00850536
0.00850974
0.00851486
0.00851869
0.00961611
0.00961462
0.00961313
0.00961217
0.0096121
0.00961296
0.00961444
0.00961598
0.00961696
0.00961703
0.00961612
0.00961464
0.00961315
0.00961218
0.0096121
0.00961295
0.00961442
0.00961596
0.00961695
0.00961703
0.0085197
0.00851741
0.00851295
0.00850801
0.00850438
0.00850335
0.00850534
0.00850968
0.00851479
0.00851864
0.00718111
0.00717818
0.00717309
0.00716768
0.00716393
0.00716333
0.00716617
0.00717135
0.00717686
0.00718059
0.00603706
0.00603362
0.00602832
0.00602309
0.00601991
0.00602003
0.00602343
0.00602879
0.00603406
0.00603724
0.0050173
0.00501362
0.00500857
0.00500401
0.00500168
0.00500247
0.0050061
0.00501118
0.00501577
0.00501815
0.00411982
0.00411621
0.00411176
0.00410816
0.00410677
0.00410812
0.00411169
0.00411614
0.00411979
0.00412125
0.00338311
0.00337975
0.00337614
0.00337365
0.00337322
0.003375
0.00337832
0.00338194
0.00338449
0.003385
0.00286205
0.00285898
0.00285621
0.00285476
0.00285519
0.00285733
0.00286037
0.00286317
0.00286468
0.00286432
0.00259573
0.00259285
0.00259059
0.00258981
0.00259079
0.00259315
0.00259601
0.00259831
0.00259917
0.00259825
0.00259573
0.00259284
0.00259059
0.0025898
0.00259078
0.00259315
0.00259602
0.00259832
0.00259917
0.00259826
0.00286205
0.00285897
0.00285619
0.00285475
0.00285518
0.00285733
0.00286038
0.00286319
0.0028647
0.00286434
0.00338311
0.00337973
0.00337611
0.00337363
0.0033732
0.003375
0.00337834
0.00338197
0.00338452
0.00338502
0.00411982
0.00411619
0.00411173
0.00410813
0.00410675
0.00410811
0.00411171
0.00411617
0.00411982
0.00412127
0.0050173
0.00501361
0.00500854
0.00500398
0.00500165
0.00500246
0.00500611
0.00501121
0.00501581
0.00501818
0.00603707
0.00603361
0.00602829
0.00602306
0.00601988
0.00602001
0.00602343
0.00602882
0.00603409
0.00603727
0.00718111
0.00717817
0.00717307
0.00716764
0.0071639
0.00716332
0.00716617
0.00717137
0.00717689
0.00718061
0.00851971
0.00851741
0.00851293
0.00850799
0.00850436
0.00850333
0.00850534
0.0085097
0.00851481
0.00851866
0.00961612
0.00961463
0.00961314
0.00961218
0.0096121
0.00961296
0.00961443
0.00961596
0.00961696
0.00961703
0.00961613
0.00961465
0.00961315
0.00961219
0.0096121
0.00961295
0.00961442
0.00961595
0.00961695
0.00961703
0.0085197
0.00851743
0.00851297
0.00850803
0.00850439
0.00850335
0.00850533
0.00850967
0.00851477
0.00851862
0.00718111
0.00717819
0.00717312
0.0071677
0.00716395
0.00716334
0.00716615
0.00717133
0.00717684
0.00718057
0.00603707
0.00603364
0.00602834
0.00602311
0.00601993
0.00602003
0.00602341
0.00602877
0.00603404
0.00603723
0.0050173
0.00501364
0.00500859
0.00500403
0.00500168
0.00500246
0.00500609
0.00501116
0.00501576
0.00501815
0.00411983
0.00411622
0.00411178
0.00410818
0.00410678
0.00410811
0.00411168
0.00411612
0.00411978
0.00412125
0.00338313
0.00337977
0.00337616
0.00337366
0.00337322
0.00337499
0.00337831
0.00338193
0.00338448
0.003385
0.00286206
0.002859
0.00285622
0.00285477
0.00285519
0.00285732
0.00286036
0.00286316
0.00286468
0.00286433
0.00259574
0.00259286
0.0025906
0.00258981
0.00259078
0.00259314
0.002596
0.0025983
0.00259916
0.00259826
0.00259574
0.00259286
0.00259059
0.0025898
0.00259078
0.00259314
0.00259601
0.00259831
0.00259917
0.00259826
0.00286206
0.00285898
0.0028562
0.00285475
0.00285518
0.00285732
0.00286037
0.00286318
0.0028647
0.00286434
0.00338312
0.00337975
0.00337613
0.00337363
0.0033732
0.00337499
0.00337833
0.00338195
0.00338451
0.00338502
0.00411983
0.00411621
0.00411175
0.00410815
0.00410675
0.0041081
0.00411169
0.00411615
0.00411981
0.00412127
0.00501731
0.00501363
0.00500856
0.00500399
0.00500166
0.00500245
0.0050061
0.00501119
0.00501579
0.00501817
0.00603708
0.00603363
0.00602831
0.00602308
0.0060199
0.00602001
0.00602342
0.0060288
0.00603407
0.00603726
0.00718112
0.00717818
0.00717309
0.00716767
0.00716392
0.00716332
0.00716615
0.00717135
0.00717687
0.0071806
0.00851971
0.00851742
0.00851295
0.00850801
0.00850437
0.00850334
0.00850533
0.00850968
0.00851479
0.00851864
0.00961612
0.00961464
0.00961314
0.00961218
0.0096121
0.00961295
0.00961442
0.00961596
0.00961695
0.00961703
0.00961613
0.00961465
0.00961315
0.00961219
0.0096121
0.00961295
0.00961442
0.00961595
0.00961695
0.00961703
0.0085197
0.00851743
0.00851297
0.00850803
0.00850439
0.00850335
0.00850533
0.00850966
0.00851477
0.00851862
0.00718111
0.00717819
0.00717312
0.0071677
0.00716395
0.00716334
0.00716615
0.00717133
0.00717684
0.00718057
0.00603707
0.00603364
0.00602834
0.00602311
0.00601993
0.00602003
0.00602341
0.00602877
0.00603404
0.00603723
0.0050173
0.00501364
0.00500859
0.00500403
0.00500168
0.00500246
0.00500609
0.00501116
0.00501576
0.00501815
0.00411983
0.00411622
0.00411178
0.00410818
0.00410678
0.00410811
0.00411168
0.00411612
0.00411978
0.00412125
0.00338313
0.00337977
0.00337616
0.00337366
0.00337322
0.00337499
0.00337831
0.00338193
0.00338448
0.003385
0.00286206
0.002859
0.00285622
0.00285477
0.00285519
0.00285732
0.00286035
0.00286316
0.00286468
0.00286433
0.00259574
0.00259286
0.0025906
0.00258981
0.00259078
0.00259314
0.002596
0.0025983
0.00259916
0.00259826
0.00259574
0.00259286
0.00259059
0.0025898
0.00259078
0.00259314
0.00259601
0.00259831
0.00259917
0.00259826
0.00286206
0.00285898
0.0028562
0.00285475
0.00285518
0.00285732
0.00286037
0.00286318
0.0028647
0.00286434
0.00338312
0.00337975
0.00337613
0.00337364
0.0033732
0.00337499
0.00337833
0.00338195
0.00338451
0.00338502
0.00411984
0.00411621
0.00411175
0.00410815
0.00410675
0.0041081
0.00411169
0.00411615
0.00411981
0.00412127
0.00501731
0.00501363
0.00500856
0.00500399
0.00500166
0.00500245
0.0050061
0.00501119
0.00501579
0.00501817
0.00603708
0.00603363
0.00602831
0.00602308
0.0060199
0.00602001
0.00602342
0.0060288
0.00603407
0.00603726
0.00718112
0.00717818
0.00717309
0.00716767
0.00716392
0.00716332
0.00716615
0.00717135
0.00717687
0.0071806
0.00851971
0.00851742
0.00851295
0.00850801
0.00850437
0.00850334
0.00850533
0.00850968
0.00851479
0.00851864
0.00961612
0.00961464
0.00961314
0.00961218
0.0096121
0.00961295
0.00961442
0.00961596
0.00961695
0.00961703
0.00961612
0.00961464
0.00961315
0.00961218
0.0096121
0.00961295
0.00961442
0.00961596
0.00961695
0.00961703
0.0085197
0.00851741
0.00851295
0.00850801
0.00850438
0.00850335
0.00850533
0.00850968
0.00851479
0.00851864
0.00718111
0.00717818
0.00717309
0.00716768
0.00716393
0.00716333
0.00716616
0.00717135
0.00717686
0.00718058
0.00603706
0.00603362
0.00602832
0.00602309
0.00601991
0.00602003
0.00602343
0.00602879
0.00603406
0.00603724
0.0050173
0.00501362
0.00500857
0.00500401
0.00500168
0.00500247
0.0050061
0.00501118
0.00501577
0.00501815
0.00411982
0.00411621
0.00411176
0.00410816
0.00410677
0.00410811
0.00411169
0.00411614
0.00411979
0.00412125
0.00338311
0.00337975
0.00337614
0.00337365
0.00337322
0.003375
0.00337832
0.00338194
0.00338449
0.003385
0.00286205
0.00285898
0.00285621
0.00285476
0.00285519
0.00285733
0.00286037
0.00286317
0.00286468
0.00286432
0.00259573
0.00259285
0.00259059
0.00258981
0.00259079
0.00259315
0.00259601
0.00259831
0.00259917
0.00259825
0.00259573
0.00259285
0.00259059
0.0025898
0.00259078
0.00259315
0.00259602
0.00259832
0.00259917
0.00259826
0.00286205
0.00285897
0.00285619
0.00285475
0.00285518
0.00285733
0.00286038
0.00286319
0.0028647
0.00286434
0.00338311
0.00337973
0.00337611
0.00337363
0.0033732
0.003375
0.00337834
0.00338197
0.00338452
0.00338502
0.00411982
0.00411619
0.00411173
0.00410813
0.00410675
0.00410811
0.00411171
0.00411617
0.00411982
0.00412127
0.0050173
0.00501361
0.00500854
0.00500398
0.00500165
0.00500246
0.00500611
0.00501121
0.00501581
0.00501818
0.00603707
0.00603361
0.00602829
0.00602306
0.00601988
0.00602001
0.00602343
0.00602882
0.00603409
0.00603727
0.00718111
0.00717817
0.00717307
0.00716764
0.0071639
0.00716332
0.00716617
0.00717137
0.00717689
0.00718061
0.00851971
0.00851741
0.00851293
0.00850799
0.00850436
0.00850333
0.00850534
0.0085097
0.00851481
0.00851866
0.00961612
0.00961463
0.00961314
0.00961218
0.0096121
0.00961296
0.00961443
0.00961596
0.00961696
0.00961703
0.00961611
0.00961463
0.00961313
0.00961218
0.0096121
0.00961296
0.00961444
0.00961597
0.00961696
0.00961703
0.0085197
0.00851739
0.00851291
0.00850797
0.00850435
0.00850334
0.00850535
0.00850972
0.00851483
0.00851867
0.0071811
0.00717815
0.00717304
0.00716763
0.0071639
0.00716333
0.00716619
0.0071714
0.00717691
0.00718061
0.00603705
0.00603358
0.00602827
0.00602304
0.00601989
0.00602003
0.00602346
0.00602884
0.0060341
0.00603726
0.00501728
0.00501358
0.00500852
0.00500397
0.00500165
0.00500248
0.00500613
0.00501122
0.00501581
0.00501817
0.0041198
0.00411617
0.00411172
0.00410813
0.00410676
0.00410813
0.00411172
0.00411618
0.00411981
0.00412125
0.00338309
0.00337971
0.00337611
0.00337363
0.00337321
0.00337501
0.00337835
0.00338197
0.00338451
0.003385
0.00286202
0.00285895
0.00285618
0.00285475
0.0028552
0.00285735
0.00286039
0.00286319
0.00286469
0.00286431
0.0025957
0.00259282
0.00259057
0.0025898
0.00259079
0.00259317
0.00259604
0.00259832
0.00259917
0.00259824
0.0025957
0.00259282
0.00259057
0.0025898
0.00259079
0.00259317
0.00259604
0.00259833
0.00259917
0.00259824
0.00286202
0.00285894
0.00285616
0.00285473
0.00285519
0.00285735
0.00286041
0.00286321
0.00286471
0.00286432
0.00338309
0.0033797
0.00337608
0.0033736
0.0033732
0.00337501
0.00337837
0.003382
0.00338454
0.00338502
0.0041198
0.00411615
0.00411169
0.0041081
0.00410674
0.00410812
0.00411174
0.00411621
0.00411984
0.00412128
0.00501728
0.00501357
0.00500849
0.00500393
0.00500163
0.00500247
0.00500614
0.00501125
0.00501584
0.00501819
0.00603706
0.00603357
0.00602824
0.00602301
0.00601986
0.00602002
0.00602346
0.00602886
0.00603413
0.00603729
0.00718111
0.00717814
0.00717302
0.00716759
0.00716387
0.00716331
0.00716619
0.00717141
0.00717693
0.00718064
0.00851971
0.00851738
0.00851289
0.00850795
0.00850433
0.00850332
0.00850535
0.00850974
0.00851486
0.00851869
0.00961611
0.00961462
0.00961313
0.00961217
0.0096121
0.00961296
0.00961444
0.00961597
0.00961696
0.00961703
0.0096161
0.00961461
0.00961311
0.00961216
0.0096121
0.00961297
0.00961445
0.00961599
0.00961697
0.00961703
0.00851971
0.00851736
0.00851284
0.0085079
0.00850429
0.00850332
0.00850538
0.00850978
0.00851491
0.00851872
0.00718111
0.0071781
0.00717297
0.00716754
0.00716384
0.00716332
0.00716623
0.00717147
0.00717698
0.00718066
0.00603704
0.00603353
0.00602818
0.00602296
0.00601984
0.00602003
0.0060235
0.00602891
0.00603417
0.0060373
0.00501726
0.00501352
0.00500844
0.0050039
0.00500162
0.00500249
0.00500619
0.00501129
0.00501587
0.00501819
0.00411977
0.0041161
0.00411165
0.00410808
0.00410674
0.00410815
0.00411177
0.00411624
0.00411986
0.00412127
0.00338305
0.00337966
0.00337605
0.00337359
0.00337321
0.00337504
0.0033784
0.00338202
0.00338454
0.003385
0.00286198
0.0028589
0.00285613
0.00285473
0.00285521
0.00285738
0.00286044
0.00286323
0.0028647
0.0028643
0.00259566
0.00259277
0.00259054
0.00258979
0.00259081
0.0025932
0.00259608
0.00259835
0.00259917
0.00259821
0.00259566
0.00259277
0.00259053
0.00258979
0.00259081
0.00259321
0.00259608
0.00259836
0.00259918
0.00259822
0.00286198
0.00285889
0.00285611
0.00285471
0.0028552
0.00285738
0.00286045
0.00286325
0.00286473
0.00286431
0.00338305
0.00337964
0.00337602
0.00337356
0.00337319
0.00337504
0.00337842
0.00338205
0.00338457
0.00338501
0.00411977
0.00411609
0.00411162
0.00410804
0.00410672
0.00410814
0.00411179
0.00411627
0.00411989
0.00412129
0.00501726
0.00501351
0.00500841
0.00500386
0.00500159
0.00500248
0.0050062
0.00501132
0.0050159
0.00501822
0.00603705
0.00603351
0.00602815
0.00602293
0.00601981
0.00602002
0.00602351
0.00602894
0.0060342
0.00603733
0.00718111
0.00717809
0.00717294
0.00716751
0.00716381
0.0071633
0.00716623
0.00717149
0.00717701
0.00718069
0.00851972
0.00851735
0.00851282
0.00850787
0.00850427
0.00850331
0.00850538
0.0085098
0.00851493
0.00851874
0.0096161
0.0096146
0.0096131
0.00961216
0.0096121
0.00961297
0.00961446
0.00961599
0.00961697
0.00961703
0.00961608
0.00961457
0.00961308
0.00961214
0.0096121
0.00961299
0.00961449
0.00961602
0.00961699
0.00961702
0.00851972
0.00851729
0.00851273
0.00850779
0.00850422
0.00850331
0.00850544
0.00850989
0.00851502
0.00851879
0.00718109
0.00717801
0.00717284
0.00716742
0.00716377
0.00716332
0.00716631
0.00717159
0.0071771
0.00718073
0.00603701
0.00603343
0.00602805
0.00602285
0.00601978
0.00602005
0.0060236
0.00602904
0.00603428
0.00603735
0.00501721
0.00501342
0.00500831
0.0050038
0.00500158
0.00500253
0.00500628
0.00501141
0.00501596
0.00501822
0.00411971
0.00411601
0.00411154
0.004108
0.00410672
0.0041082
0.00411186
0.00411634
0.00411993
0.00412127
0.00338299
0.00337957
0.00337596
0.00337355
0.00337321
0.00337509
0.00337848
0.00338209
0.00338458
0.00338499
0.00286191
0.00285882
0.00285607
0.00285471
0.00285523
0.00285744
0.00286051
0.00286328
0.00286472
0.00286427
0.00259559
0.0025927
0.00259049
0.00258979
0.00259085
0.00259327
0.00259614
0.00259839
0.00259917
0.00259817
0.00259559
0.0025927
0.00259048
0.00258978
0.00259085
0.00259327
0.00259615
0.0025984
0.00259918
0.00259817
0.00286191
0.00285881
0.00285606
0.00285469
0.00285522
0.00285744
0.00286052
0.0028633
0.00286474
0.00286428
0.00338299
0.00337955
0.00337594
0.00337352
0.0033732
0.0033751
0.0033785
0.00338212
0.00338461
0.003385
0.00411971
0.00411599
0.00411151
0.00410797
0.0041067
0.00410819
0.00411188
0.00411636
0.00411996
0.0041213
0.00501721
0.0050134
0.00500828
0.00500377
0.00500156
0.00500252
0.00500629
0.00501144
0.00501599
0.00501825
0.00603702
0.00603341
0.00602802
0.00602281
0.00601975
0.00602004
0.0060236
0.00602906
0.00603431
0.00603738
0.0071811
0.007178
0.00717281
0.00716739
0.00716374
0.00716331
0.00716631
0.00717161
0.00717713
0.00718075
0.00851972
0.00851728
0.00851272
0.00850776
0.0085042
0.0085033
0.00850544
0.0085099
0.00851504
0.00851881
0.00961607
0.00961457
0.00961307
0.00961214
0.0096121
0.00961299
0.00961449
0.00961603
0.00961699
0.00961702
)
;

boundaryField
{
    bottomWall
    {
        type            kqRWallFunction;
        value           nonuniform List<scalar> 
100
(
0.00961608
0.0096161
0.00961611
0.00961612
0.00961613
0.00961613
0.00961612
0.00961611
0.0096161
0.00961608
0.00961457
0.00961461
0.00961463
0.00961464
0.00961465
0.00961465
0.00961464
0.00961463
0.00961461
0.00961457
0.00961308
0.00961311
0.00961313
0.00961315
0.00961315
0.00961315
0.00961315
0.00961313
0.00961311
0.00961308
0.00961214
0.00961216
0.00961217
0.00961218
0.00961219
0.00961219
0.00961218
0.00961218
0.00961216
0.00961214
0.0096121
0.0096121
0.0096121
0.0096121
0.0096121
0.0096121
0.0096121
0.0096121
0.0096121
0.0096121
0.00961299
0.00961297
0.00961296
0.00961295
0.00961295
0.00961295
0.00961295
0.00961296
0.00961297
0.00961299
0.00961449
0.00961445
0.00961444
0.00961442
0.00961442
0.00961442
0.00961442
0.00961444
0.00961445
0.00961449
0.00961602
0.00961599
0.00961597
0.00961596
0.00961595
0.00961595
0.00961596
0.00961597
0.00961599
0.00961602
0.00961699
0.00961697
0.00961696
0.00961695
0.00961695
0.00961695
0.00961695
0.00961696
0.00961697
0.00961699
0.00961702
0.00961703
0.00961703
0.00961703
0.00961703
0.00961703
0.00961703
0.00961703
0.00961703
0.00961702
)
;
    }
    topWall
    {
        type            kqRWallFunction;
        value           nonuniform List<scalar> 
100
(
0.00961607
0.0096161
0.00961611
0.00961612
0.00961612
0.00961612
0.00961612
0.00961611
0.0096161
0.00961607
0.00961457
0.0096146
0.00961462
0.00961463
0.00961464
0.00961464
0.00961463
0.00961462
0.0096146
0.00961457
0.00961307
0.0096131
0.00961313
0.00961314
0.00961314
0.00961314
0.00961314
0.00961313
0.0096131
0.00961307
0.00961213
0.00961216
0.00961217
0.00961218
0.00961218
0.00961218
0.00961218
0.00961217
0.00961216
0.00961214
0.0096121
0.0096121
0.0096121
0.0096121
0.0096121
0.0096121
0.0096121
0.0096121
0.0096121
0.0096121
0.00961299
0.00961297
0.00961296
0.00961296
0.00961295
0.00961295
0.00961296
0.00961296
0.00961297
0.00961299
0.00961449
0.00961446
0.00961444
0.00961443
0.00961442
0.00961442
0.00961443
0.00961444
0.00961446
0.00961449
0.00961603
0.009616
0.00961598
0.00961596
0.00961596
0.00961596
0.00961596
0.00961597
0.00961599
0.00961603
0.00961699
0.00961698
0.00961696
0.00961696
0.00961695
0.00961695
0.00961696
0.00961696
0.00961697
0.00961699
0.00961702
0.00961703
0.00961703
0.00961703
0.00961703
0.00961703
0.00961703
0.00961703
0.00961703
0.00961702
)
;
    }
    sides1_half0
    {
        type            cyclic;
    }
    sides1_half1
    {
        type            cyclic;
    }
    inout1_half0
    {
        type            cyclic;
    }
    inout1_half1
    {
        type            cyclic;
    }
}


// ************************************************************************* //
