/*--------------------------------*- C++ -*----------------------------------*\
| =========                 |                                                 |
| \\      /  F ield         | OpenFOAM: The Open Source CFD Toolbox           |
|  \\    /   O peration     | Version:  2.3.0                                 |
|   \\  /    A nd           | Web:      www.OpenFOAM.org                      |
|    \\/     M anipulation  |                                                 |
\*---------------------------------------------------------------------------*/
FoamFile
{
    version     2.0;
    format      ascii;
    class       volScalarField;
    location    "400";
    object      nut;
}
// * * * * * * * * * * * * * * * * * * * * * * * * * * * * * * * * * * * * * //

dimensions      [0 2 -1 0 0 0 0];

internalField   nonuniform List<scalar> 
1800
(
0.00122342
0.00122333
0.00122323
0.00122316
0.00122315
0.00122319
0.00122329
0.00122339
0.00122346
0.00122347
0.00256633
0.00256561
0.00256366
0.00256123
0.00255918
0.00255826
0.00255883
0.0025607
0.0025632
0.00256534
0.00350951
0.00350763
0.0035037
0.0034991
0.00349554
0.00349438
0.00349611
0.0035001
0.00350477
0.00350833
0.00413481
0.00413135
0.0041253
0.00411883
0.00411437
0.00411364
0.00411696
0.00412305
0.00412957
0.00413404
0.00449957
0.00449439
0.00448655
0.00447892
0.00447437
0.00447464
0.00447966
0.00448751
0.00449519
0.00449981
0.00469727
0.00469045
0.00468144
0.00467357
0.0046698
0.00467155
0.00467818
0.00468716
0.00469512
0.00469905
0.00484233
0.004834
0.00482454
0.00481747
0.00481543
0.00481918
0.00482731
0.00483676
0.00484399
0.00484624
0.0050225
0.00501265
0.00500326
0.00499781
0.00499832
0.00500459
0.00501426
0.00502372
0.0050294
0.00502913
0.00519258
0.00518151
0.00517224
0.00516823
0.00517094
0.00517933
0.00519027
0.00519967
0.00520398
0.00520151
0.00519258
0.00518149
0.00517222
0.0051682
0.00517092
0.00517933
0.00519029
0.0051997
0.00520401
0.00520154
0.00502251
0.00501262
0.00500319
0.00499774
0.00499828
0.00500458
0.0050143
0.00502378
0.00502947
0.00502918
0.00484233
0.00483396
0.00482447
0.00481739
0.00481538
0.00481917
0.00482735
0.00483683
0.00484407
0.00484629
0.00469727
0.00469042
0.00468138
0.0046735
0.00466975
0.00467154
0.0046782
0.00468722
0.00469519
0.0046991
0.00449959
0.00449438
0.00448651
0.00447886
0.00447432
0.00447462
0.00447967
0.00448754
0.00449524
0.00449986
0.00413483
0.00413134
0.00412527
0.00411879
0.00411433
0.00411361
0.00411696
0.00412308
0.0041296
0.00413407
0.00350952
0.00350763
0.00350368
0.00349908
0.00349551
0.00349436
0.00349611
0.00350011
0.00350479
0.00350835
0.00256634
0.00256561
0.00256365
0.00256121
0.00255917
0.00255825
0.00255883
0.00256071
0.00256321
0.00256535
0.00122342
0.00122333
0.00122323
0.00122316
0.00122315
0.0012232
0.00122329
0.00122339
0.00122346
0.00122347
0.00122342
0.00122333
0.00122323
0.00122316
0.00122315
0.00122319
0.00122328
0.00122339
0.00122346
0.00122347
0.00256632
0.00256563
0.00256371
0.00256128
0.00255922
0.00255828
0.00255881
0.00256066
0.00256314
0.00256529
0.0035095
0.00350768
0.00350379
0.00349921
0.00349561
0.00349439
0.00349606
0.0035
0.00350467
0.00350826
0.00413482
0.00413145
0.00412545
0.00411898
0.00411446
0.00411363
0.00411686
0.00412291
0.00412942
0.00413396
0.00449962
0.00449454
0.00448674
0.00447909
0.00447445
0.00447461
0.00447953
0.00448732
0.00449502
0.00449974
0.00469735
0.00469064
0.00468165
0.00467374
0.00466986
0.00467148
0.004678
0.00468696
0.00469496
0.00469899
0.00484247
0.00483422
0.00482475
0.00481761
0.00481544
0.00481906
0.0048271
0.00483655
0.00484386
0.00484623
0.00502271
0.00501291
0.00500347
0.0049979
0.00499826
0.00500441
0.00501402
0.00502352
0.00502932
0.00502919
0.00519284
0.00518178
0.00517244
0.00516828
0.00517082
0.0051791
0.00519001
0.00519949
0.00520394
0.00520164
0.00519284
0.00518177
0.00517241
0.00516825
0.0051708
0.00517909
0.00519003
0.00519951
0.00520397
0.00520166
0.00502271
0.00501287
0.0050034
0.00499783
0.00499822
0.0050044
0.00501406
0.00502358
0.00502939
0.00502925
0.00484247
0.00483418
0.00482469
0.00481753
0.00481538
0.00481905
0.00482714
0.00483662
0.00484394
0.00484629
0.00469736
0.00469061
0.0046816
0.00467367
0.0046698
0.00467146
0.00467803
0.00468701
0.00469503
0.00469905
0.00449963
0.00449452
0.0044867
0.00447903
0.0044744
0.00447459
0.00447954
0.00448736
0.00449508
0.00449978
0.00413484
0.00413144
0.00412542
0.00411894
0.00411442
0.00411361
0.00411686
0.00412293
0.00412946
0.00413399
0.00350951
0.00350768
0.00350378
0.00349919
0.00349559
0.00349438
0.00349606
0.00350002
0.00350469
0.00350828
0.00256632
0.00256563
0.0025637
0.00256127
0.00255921
0.00255827
0.00255881
0.00256066
0.00256315
0.0025653
0.00122342
0.00122333
0.00122323
0.00122316
0.00122315
0.00122319
0.00122328
0.00122339
0.00122346
0.00122347
0.00122343
0.00122333
0.00122324
0.00122317
0.00122315
0.00122319
0.00122328
0.00122338
0.00122346
0.00122347
0.0025663
0.00256564
0.00256374
0.00256132
0.00255925
0.00255829
0.0025588
0.00256063
0.00256311
0.00256526
0.00350949
0.00350771
0.00350385
0.00349928
0.00349567
0.00349441
0.00349604
0.00349995
0.0035046
0.00350821
0.00413482
0.00413151
0.00412555
0.00411908
0.00411452
0.00411365
0.00411682
0.00412282
0.00412933
0.00413389
0.00449963
0.00449462
0.00448687
0.00447921
0.00447452
0.00447461
0.00447945
0.00448721
0.00449492
0.00449968
0.00469739
0.00469075
0.0046818
0.00467386
0.00466991
0.00467145
0.00467791
0.00468683
0.00469485
0.00469895
0.00484255
0.00483436
0.00482491
0.00481772
0.00481547
0.004819
0.00482699
0.00483642
0.00484376
0.00484622
0.00502283
0.00501308
0.00500362
0.00499799
0.00499826
0.00500431
0.00501389
0.00502339
0.00502926
0.00502923
0.005193
0.00518198
0.0051726
0.00516835
0.00517078
0.00517897
0.00518986
0.00519936
0.0052039
0.00520171
0.005193
0.00518196
0.00517257
0.00516832
0.00517076
0.00517897
0.00518987
0.00519939
0.00520393
0.00520174
0.00502283
0.00501304
0.00500356
0.00499792
0.00499821
0.0050043
0.00501392
0.00502346
0.00502933
0.00502928
0.00484255
0.00483432
0.00482484
0.00481764
0.00481542
0.00481899
0.00482702
0.00483649
0.00484384
0.00484628
0.0046974
0.00469072
0.00468174
0.00467379
0.00466986
0.00467143
0.00467793
0.00468688
0.00469492
0.004699
0.00449965
0.00449461
0.00448682
0.00447915
0.00447447
0.00447458
0.00447946
0.00448725
0.00449497
0.00449972
0.00413483
0.0041315
0.00412552
0.00411904
0.00411448
0.00411362
0.00411682
0.00412284
0.00412937
0.00413393
0.0035095
0.00350771
0.00350384
0.00349926
0.00349564
0.00349439
0.00349604
0.00349996
0.00350462
0.00350823
0.00256631
0.00256564
0.00256373
0.00256131
0.00255924
0.00255829
0.0025588
0.00256064
0.00256312
0.00256527
0.00122342
0.00122333
0.00122323
0.00122316
0.00122315
0.00122319
0.00122328
0.00122338
0.00122346
0.00122347
0.00122343
0.00122333
0.00122324
0.00122317
0.00122315
0.00122319
0.00122328
0.00122338
0.00122346
0.00122347
0.0025663
0.00256565
0.00256376
0.00256134
0.00255927
0.0025583
0.0025588
0.00256061
0.00256308
0.00256524
0.00350948
0.00350773
0.00350389
0.00349932
0.0034957
0.00349442
0.00349603
0.00349991
0.00350456
0.00350818
0.00413482
0.00413154
0.00412561
0.00411914
0.00411457
0.00411365
0.00411679
0.00412277
0.00412928
0.00413386
0.00449965
0.00449468
0.00448695
0.00447928
0.00447456
0.0044746
0.00447941
0.00448714
0.00449485
0.00449964
0.00469743
0.00469082
0.00468189
0.00467394
0.00466995
0.00467144
0.00467785
0.00468675
0.00469479
0.00469893
0.0048426
0.00483445
0.00482501
0.00481779
0.00481549
0.00481897
0.00482691
0.00483634
0.00484371
0.00484622
0.00502291
0.00501318
0.00500372
0.00499804
0.00499826
0.00500426
0.0050138
0.00502332
0.00502922
0.00502925
0.00519311
0.0051821
0.0051727
0.00516839
0.00517076
0.0051789
0.00518977
0.0051993
0.00520389
0.00520176
0.00519311
0.00518208
0.00517267
0.00516836
0.00517074
0.0051789
0.00518978
0.00519932
0.00520392
0.00520179
0.00502292
0.00501315
0.00500366
0.00499797
0.00499821
0.00500425
0.00501384
0.00502338
0.0050293
0.00502931
0.00484261
0.00483441
0.00482494
0.00481771
0.00481543
0.00481895
0.00482695
0.00483641
0.00484379
0.00484628
0.00469744
0.0046908
0.00468183
0.00467387
0.00466989
0.00467142
0.00467787
0.00468681
0.00469486
0.00469898
0.00449966
0.00449466
0.0044869
0.00447922
0.00447451
0.00447458
0.00447942
0.00448718
0.0044949
0.00449969
0.00413484
0.00413154
0.00412558
0.0041191
0.00411453
0.00411363
0.00411678
0.00412279
0.00412931
0.0041339
0.0035095
0.00350773
0.00350388
0.0034993
0.00349567
0.0034944
0.00349602
0.00349992
0.00350458
0.0035082
0.0025663
0.00256565
0.00256375
0.00256133
0.00255926
0.00255829
0.0025588
0.00256062
0.00256309
0.00256525
0.00122343
0.00122333
0.00122324
0.00122317
0.00122315
0.00122319
0.00122328
0.00122338
0.00122346
0.00122347
0.00122343
0.00122334
0.00122324
0.00122317
0.00122315
0.00122319
0.00122328
0.00122338
0.00122346
0.00122347
0.00256629
0.00256565
0.00256377
0.00256135
0.00255928
0.00255831
0.0025588
0.00256061
0.00256307
0.00256524
0.00350948
0.00350774
0.00350391
0.00349934
0.00349571
0.00349443
0.00349602
0.0034999
0.00350454
0.00350817
0.00413483
0.00413156
0.00412563
0.00411917
0.00411458
0.00411365
0.00411677
0.00412274
0.00412925
0.00413385
0.00449966
0.00449471
0.00448698
0.00447931
0.00447458
0.0044746
0.00447939
0.00448711
0.00449483
0.00449963
0.00469744
0.00469086
0.00468193
0.00467397
0.00466996
0.00467143
0.00467782
0.00468672
0.00469476
0.00469892
0.00484263
0.00483449
0.00482505
0.00481782
0.0048155
0.00481895
0.00482688
0.00483631
0.00484369
0.00484622
0.00502295
0.00501323
0.00500376
0.00499806
0.00499825
0.00500423
0.00501376
0.00502328
0.00502921
0.00502926
0.00519315
0.00518215
0.00517273
0.0051684
0.00517074
0.00517886
0.00518972
0.00519926
0.00520388
0.00520179
0.00519316
0.00518214
0.00517271
0.00516837
0.00517072
0.00517886
0.00518974
0.00519929
0.00520391
0.00520181
0.00502295
0.0050132
0.0050037
0.00499799
0.0049982
0.00500422
0.0050138
0.00502335
0.00502928
0.00502932
0.00484263
0.00483445
0.00482498
0.00481774
0.00481544
0.00481893
0.00482691
0.00483637
0.00484377
0.00484628
0.00469745
0.00469083
0.00468187
0.0046739
0.00466991
0.00467141
0.00467784
0.00468677
0.00469483
0.00469897
0.00449967
0.00449469
0.00448694
0.00447926
0.00447453
0.00447457
0.00447939
0.00448715
0.00449488
0.00449968
0.00413484
0.00413156
0.0041256
0.00411913
0.00411454
0.00411363
0.00411677
0.00412276
0.00412929
0.00413388
0.0035095
0.00350774
0.00350389
0.00349932
0.00349569
0.00349441
0.00349601
0.00349991
0.00350456
0.00350819
0.0025663
0.00256565
0.00256376
0.00256134
0.00255927
0.0025583
0.00255879
0.00256061
0.00256308
0.00256525
0.00122343
0.00122333
0.00122324
0.00122317
0.00122315
0.00122319
0.00122328
0.00122338
0.00122346
0.00122347
0.00122343
0.00122334
0.00122324
0.00122317
0.00122315
0.00122319
0.00122328
0.00122338
0.00122346
0.00122347
0.00256629
0.00256565
0.00256377
0.00256135
0.00255928
0.00255831
0.0025588
0.00256061
0.00256307
0.00256524
0.00350948
0.00350774
0.00350391
0.00349934
0.00349571
0.00349443
0.00349602
0.0034999
0.00350454
0.00350817
0.00413483
0.00413156
0.00412563
0.00411917
0.00411458
0.00411365
0.00411677
0.00412274
0.00412925
0.00413385
0.00449966
0.00449471
0.00448698
0.00447931
0.00447458
0.0044746
0.00447939
0.00448711
0.00449483
0.00449963
0.00469744
0.00469086
0.00468193
0.00467397
0.00466996
0.00467143
0.00467782
0.00468672
0.00469476
0.00469892
0.00484263
0.00483449
0.00482505
0.00481782
0.0048155
0.00481895
0.00482688
0.0048363
0.00484369
0.00484622
0.00502295
0.00501323
0.00500376
0.00499806
0.00499825
0.00500423
0.00501376
0.00502328
0.00502921
0.00502926
0.00519315
0.00518215
0.00517274
0.0051684
0.00517074
0.00517886
0.00518972
0.00519926
0.00520388
0.00520179
0.00519316
0.00518214
0.00517271
0.00516837
0.00517072
0.00517886
0.00518974
0.00519929
0.00520391
0.00520181
0.00502295
0.0050132
0.0050037
0.00499799
0.0049982
0.00500422
0.0050138
0.00502335
0.00502928
0.00502932
0.00484263
0.00483446
0.00482498
0.00481774
0.00481544
0.00481893
0.00482691
0.00483637
0.00484377
0.00484628
0.00469745
0.00469083
0.00468187
0.0046739
0.00466991
0.00467141
0.00467784
0.00468677
0.00469483
0.00469897
0.00449967
0.00449469
0.00448694
0.00447926
0.00447453
0.00447457
0.00447939
0.00448715
0.00449488
0.00449968
0.00413484
0.00413156
0.0041256
0.00411913
0.00411454
0.00411363
0.00411677
0.00412276
0.00412929
0.00413388
0.0035095
0.00350774
0.00350389
0.00349932
0.00349569
0.00349441
0.00349601
0.00349991
0.00350456
0.00350819
0.0025663
0.00256565
0.00256376
0.00256134
0.00255927
0.0025583
0.00255879
0.00256061
0.00256308
0.00256525
0.00122343
0.00122333
0.00122324
0.00122317
0.00122315
0.00122319
0.00122328
0.00122338
0.00122346
0.00122347
0.00122343
0.00122333
0.00122324
0.00122317
0.00122315
0.00122319
0.00122328
0.00122338
0.00122346
0.00122347
0.0025663
0.00256565
0.00256376
0.00256134
0.00255927
0.0025583
0.0025588
0.00256061
0.00256308
0.00256524
0.00350948
0.00350773
0.00350389
0.00349933
0.0034957
0.00349442
0.00349602
0.00349991
0.00350456
0.00350818
0.00413482
0.00413155
0.00412561
0.00411914
0.00411457
0.00411365
0.00411678
0.00412277
0.00412928
0.00413386
0.00449965
0.00449468
0.00448695
0.00447928
0.00447456
0.0044746
0.00447941
0.00448714
0.00449485
0.00449964
0.00469743
0.00469082
0.00468189
0.00467394
0.00466995
0.00467144
0.00467785
0.00468675
0.00469479
0.00469893
0.0048426
0.00483445
0.00482501
0.00481779
0.00481549
0.00481897
0.00482691
0.00483634
0.00484371
0.00484622
0.00502292
0.00501319
0.00500372
0.00499804
0.00499825
0.00500426
0.0050138
0.00502332
0.00502922
0.00502925
0.00519311
0.0051821
0.0051727
0.00516839
0.00517076
0.0051789
0.00518976
0.00519929
0.00520389
0.00520177
0.00519311
0.00518209
0.00517267
0.00516836
0.00517074
0.00517889
0.00518978
0.00519932
0.00520392
0.00520179
0.00502292
0.00501315
0.00500366
0.00499798
0.0049982
0.00500425
0.00501383
0.00502338
0.0050293
0.00502931
0.00484261
0.00483442
0.00482494
0.00481771
0.00481543
0.00481895
0.00482695
0.00483641
0.00484379
0.00484628
0.00469744
0.0046908
0.00468183
0.00467387
0.00466989
0.00467142
0.00467787
0.0046868
0.00469486
0.00469898
0.00449966
0.00449466
0.0044869
0.00447922
0.00447451
0.00447458
0.00447941
0.00448718
0.0044949
0.00449969
0.00413484
0.00413154
0.00412558
0.0041191
0.00411453
0.00411363
0.00411678
0.00412279
0.00412931
0.00413389
0.0035095
0.00350773
0.00350388
0.0034993
0.00349567
0.0034944
0.00349602
0.00349992
0.00350458
0.0035082
0.0025663
0.00256565
0.00256375
0.00256133
0.00255926
0.00255829
0.0025588
0.00256062
0.00256309
0.00256525
0.00122343
0.00122333
0.00122324
0.00122317
0.00122315
0.00122319
0.00122328
0.00122338
0.00122346
0.00122347
0.00122343
0.00122333
0.00122324
0.00122317
0.00122315
0.00122319
0.00122328
0.00122338
0.00122346
0.00122347
0.0025663
0.00256564
0.00256374
0.00256132
0.00255926
0.00255829
0.0025588
0.00256063
0.0025631
0.00256526
0.00350949
0.00350771
0.00350386
0.00349928
0.00349567
0.00349441
0.00349604
0.00349995
0.0035046
0.00350821
0.00413482
0.00413151
0.00412555
0.00411908
0.00411453
0.00411364
0.00411681
0.00412282
0.00412933
0.00413389
0.00449963
0.00449462
0.00448687
0.00447921
0.00447452
0.00447461
0.00447945
0.00448721
0.00449491
0.00449968
0.0046974
0.00469075
0.0046818
0.00467386
0.00466992
0.00467145
0.0046779
0.00468682
0.00469485
0.00469895
0.00484255
0.00483436
0.00482491
0.00481772
0.00481547
0.004819
0.00482698
0.00483642
0.00484376
0.00484622
0.00502283
0.00501308
0.00500362
0.00499799
0.00499826
0.00500431
0.00501388
0.00502339
0.00502926
0.00502923
0.00519301
0.00518198
0.0051726
0.00516835
0.00517078
0.00517897
0.00518985
0.00519936
0.0052039
0.00520172
0.00519301
0.00518197
0.00517257
0.00516832
0.00517076
0.00517897
0.00518987
0.00519939
0.00520393
0.00520174
0.00502284
0.00501305
0.00500356
0.00499792
0.00499821
0.0050043
0.00501392
0.00502345
0.00502933
0.00502928
0.00484255
0.00483433
0.00482484
0.00481765
0.00481542
0.00481899
0.00482702
0.00483649
0.00484384
0.00484628
0.00469741
0.00469072
0.00468174
0.00467379
0.00466986
0.00467143
0.00467793
0.00468688
0.00469492
0.004699
0.00449965
0.00449461
0.00448683
0.00447915
0.00447447
0.00447458
0.00447946
0.00448724
0.00449497
0.00449972
0.00413483
0.0041315
0.00412552
0.00411904
0.00411449
0.00411362
0.00411681
0.00412284
0.00412937
0.00413393
0.0035095
0.00350771
0.00350384
0.00349926
0.00349564
0.00349439
0.00349604
0.00349996
0.00350462
0.00350823
0.00256631
0.00256564
0.00256373
0.00256131
0.00255924
0.00255829
0.0025588
0.00256063
0.00256311
0.00256527
0.00122342
0.00122333
0.00122323
0.00122316
0.00122315
0.00122319
0.00122328
0.00122338
0.00122346
0.00122347
0.00122342
0.00122333
0.00122323
0.00122316
0.00122315
0.00122319
0.00122328
0.00122339
0.00122346
0.00122347
0.00256632
0.00256563
0.00256371
0.00256128
0.00255922
0.00255828
0.00255881
0.00256066
0.00256314
0.00256529
0.0035095
0.00350769
0.0035038
0.00349921
0.00349561
0.00349439
0.00349606
0.0035
0.00350466
0.00350826
0.00413482
0.00413145
0.00412545
0.00411898
0.00411446
0.00411363
0.00411686
0.0041229
0.00412942
0.00413395
0.00449962
0.00449454
0.00448675
0.00447909
0.00447445
0.00447461
0.00447952
0.00448732
0.00449502
0.00449973
0.00469735
0.00469064
0.00468166
0.00467374
0.00466986
0.00467148
0.004678
0.00468695
0.00469496
0.00469899
0.00484247
0.00483422
0.00482476
0.00481761
0.00481544
0.00481906
0.0048271
0.00483655
0.00484385
0.00484623
0.00502271
0.00501291
0.00500347
0.0049979
0.00499826
0.0050044
0.00501402
0.00502351
0.00502932
0.0050292
0.00519284
0.00518179
0.00517245
0.00516828
0.00517082
0.00517909
0.00519001
0.00519948
0.00520394
0.00520164
0.00519285
0.00518178
0.00517242
0.00516825
0.0051708
0.00517909
0.00519002
0.00519951
0.00520397
0.00520167
0.00502271
0.00501288
0.00500341
0.00499783
0.00499821
0.00500439
0.00501405
0.00502358
0.00502939
0.00502925
0.00484247
0.00483418
0.00482469
0.00481753
0.00481538
0.00481904
0.00482713
0.00483662
0.00484393
0.00484629
0.00469736
0.00469061
0.0046816
0.00467367
0.0046698
0.00467146
0.00467802
0.00468701
0.00469502
0.00469905
0.00449963
0.00449452
0.0044867
0.00447904
0.0044744
0.00447459
0.00447953
0.00448736
0.00449507
0.00449978
0.00413484
0.00413145
0.00412543
0.00411894
0.00411442
0.00411361
0.00411686
0.00412293
0.00412946
0.00413399
0.00350951
0.00350768
0.00350378
0.00349919
0.00349559
0.00349438
0.00349606
0.00350001
0.00350469
0.00350828
0.00256632
0.00256563
0.0025637
0.00256127
0.00255921
0.00255827
0.00255881
0.00256066
0.00256315
0.0025653
0.00122342
0.00122333
0.00122323
0.00122316
0.00122315
0.00122319
0.00122328
0.00122339
0.00122346
0.00122347
0.00122342
0.00122333
0.00122323
0.00122316
0.00122315
0.00122319
0.00122329
0.00122339
0.00122346
0.00122347
0.00256633
0.00256561
0.00256366
0.00256123
0.00255918
0.00255826
0.00255883
0.0025607
0.0025632
0.00256534
0.00350951
0.00350763
0.0035037
0.00349911
0.00349554
0.00349438
0.00349611
0.0035001
0.00350477
0.00350833
0.00413481
0.00413136
0.0041253
0.00411884
0.00411437
0.00411364
0.00411695
0.00412305
0.00412956
0.00413404
0.00449957
0.0044944
0.00448656
0.00447892
0.00447437
0.00447464
0.00447966
0.0044875
0.00449518
0.00449981
0.00469727
0.00469045
0.00468144
0.00467358
0.0046698
0.00467155
0.00467817
0.00468716
0.00469511
0.00469904
0.00484233
0.004834
0.00482454
0.00481748
0.00481544
0.00481918
0.00482731
0.00483676
0.00484398
0.00484623
0.00502251
0.00501266
0.00500326
0.00499781
0.00499832
0.00500459
0.00501426
0.00502371
0.0050294
0.00502913
0.00519259
0.00518151
0.00517225
0.00516824
0.00517094
0.00517932
0.00519026
0.00519967
0.00520397
0.00520151
0.00519259
0.0051815
0.00517222
0.00516821
0.00517092
0.00517932
0.00519028
0.00519969
0.00520401
0.00520154
0.00502251
0.00501262
0.0050032
0.00499775
0.00499828
0.00500458
0.00501429
0.00502378
0.00502947
0.00502918
0.00484233
0.00483396
0.00482447
0.0048174
0.00481538
0.00481917
0.00482734
0.00483683
0.00484406
0.00484629
0.00469727
0.00469042
0.00468138
0.00467351
0.00466975
0.00467154
0.0046782
0.00468721
0.00469518
0.0046991
0.00449959
0.00449438
0.00448651
0.00447887
0.00447432
0.00447462
0.00447967
0.00448754
0.00449523
0.00449986
0.00413482
0.00413135
0.00412527
0.0041188
0.00411433
0.00411361
0.00411695
0.00412307
0.0041296
0.00413407
0.00350952
0.00350763
0.00350368
0.00349908
0.00349551
0.00349436
0.00349611
0.00350011
0.00350479
0.00350835
0.00256634
0.00256561
0.00256366
0.00256122
0.00255917
0.00255826
0.00255883
0.00256071
0.00256321
0.00256535
0.00122342
0.00122333
0.00122323
0.00122316
0.00122315
0.0012232
0.00122329
0.00122339
0.00122346
0.00122347
)
;

boundaryField
{
    bottomWall
    {
        type            nutkWallFunction;
        Cmu             0.09;
        kappa           0.41;
        E               9.8;
        value           nonuniform List<scalar> 
100
(
0.000115457
0.000115457
0.000115457
0.000115457
0.000115457
0.000115457
0.000115457
0.000115457
0.000115457
0.000115457
0.000115443
0.000115443
0.000115443
0.000115443
0.000115443
0.000115443
0.000115443
0.000115443
0.000115443
0.000115443
0.000115429
0.000115429
0.000115429
0.00011543
0.00011543
0.00011543
0.00011543
0.000115429
0.000115429
0.000115429
0.00011542
0.00011542
0.000115421
0.000115421
0.000115421
0.000115421
0.000115421
0.000115421
0.00011542
0.00011542
0.00011542
0.00011542
0.00011542
0.00011542
0.00011542
0.00011542
0.00011542
0.00011542
0.00011542
0.00011542
0.000115428
0.000115428
0.000115428
0.000115428
0.000115428
0.000115428
0.000115428
0.000115428
0.000115428
0.000115428
0.000115442
0.000115442
0.000115441
0.000115441
0.000115441
0.000115441
0.000115441
0.000115441
0.000115442
0.000115442
0.000115456
0.000115456
0.000115456
0.000115456
0.000115455
0.000115455
0.000115456
0.000115456
0.000115456
0.000115456
0.000115465
0.000115465
0.000115465
0.000115465
0.000115465
0.000115465
0.000115465
0.000115465
0.000115465
0.000115465
0.000115465
0.000115465
0.000115465
0.000115465
0.000115465
0.000115465
0.000115465
0.000115465
0.000115465
0.000115465
)
;
    }
    topWall
    {
        type            nutkWallFunction;
        Cmu             0.09;
        kappa           0.41;
        E               9.8;
        value           nonuniform List<scalar> 
100
(
0.000115457
0.000115457
0.000115457
0.000115457
0.000115457
0.000115457
0.000115457
0.000115457
0.000115457
0.000115457
0.000115443
0.000115443
0.000115443
0.000115443
0.000115443
0.000115443
0.000115443
0.000115443
0.000115443
0.000115443
0.000115429
0.000115429
0.000115429
0.00011543
0.00011543
0.00011543
0.00011543
0.000115429
0.000115429
0.000115429
0.00011542
0.00011542
0.000115421
0.000115421
0.000115421
0.000115421
0.000115421
0.000115421
0.00011542
0.00011542
0.00011542
0.00011542
0.00011542
0.00011542
0.00011542
0.00011542
0.00011542
0.00011542
0.00011542
0.00011542
0.000115428
0.000115428
0.000115428
0.000115428
0.000115428
0.000115428
0.000115428
0.000115428
0.000115428
0.000115428
0.000115442
0.000115442
0.000115442
0.000115441
0.000115441
0.000115441
0.000115441
0.000115442
0.000115442
0.000115442
0.000115456
0.000115456
0.000115456
0.000115456
0.000115456
0.000115456
0.000115456
0.000115456
0.000115456
0.000115456
0.000115465
0.000115465
0.000115465
0.000115465
0.000115465
0.000115465
0.000115465
0.000115465
0.000115465
0.000115465
0.000115465
0.000115465
0.000115465
0.000115465
0.000115465
0.000115465
0.000115465
0.000115465
0.000115465
0.000115465
)
;
    }
    sides1_half0
    {
        type            cyclic;
    }
    sides1_half1
    {
        type            cyclic;
    }
    inout1_half0
    {
        type            cyclic;
    }
    inout1_half1
    {
        type            cyclic;
    }
}


// ************************************************************************* //
