/*--------------------------------*- C++ -*----------------------------------*\
| =========                 |                                                 |
| \\      /  F ield         | OpenFOAM: The Open Source CFD Toolbox           |
|  \\    /   O peration     | Version:  2.3.0                                 |
|   \\  /    A nd           | Web:      www.OpenFOAM.org                      |
|    \\/     M anipulation  |                                                 |
\*---------------------------------------------------------------------------*/
FoamFile
{
    version     2.0;
    format      ascii;
    class       volScalarField;
    location    "400";
    object      p;
}
// * * * * * * * * * * * * * * * * * * * * * * * * * * * * * * * * * * * * * //

dimensions      [0 2 -2 0 0 0 0];

internalField   nonuniform List<scalar> 
1800
(
3.40872e-07
-7.75867e-06
-1.25078e-05
-1.19185e-05
-6.37035e-06
2.02141e-06
1.00363e-05
1.46291e-05
1.40234e-05
8.62736e-06
3.84966e-07
-7.77909e-06
-1.25791e-05
-1.2022e-05
-6.48049e-06
1.96645e-06
1.00605e-05
1.47206e-05
1.41422e-05
8.71922e-06
4.10973e-07
-7.89111e-06
-1.2783e-05
-1.22833e-05
-6.62785e-06
1.93985e-06
1.01683e-05
1.49239e-05
1.44197e-05
8.87105e-06
3.75368e-07
-8.05522e-06
-1.30071e-05
-1.24849e-05
-6.73376e-06
1.97412e-06
1.03316e-05
1.51502e-05
1.46205e-05
8.9769e-06
2.97935e-07
-8.23833e-06
-1.32227e-05
-1.26533e-05
-6.79262e-06
2.05042e-06
1.0513e-05
1.53661e-05
1.47889e-05
9.03733e-06
1.98266e-07
-8.41206e-06
-1.34025e-05
-1.27724e-05
-6.80632e-06
2.14788e-06
1.0684e-05
1.5546e-05
1.491e-05
9.05293e-06
9.34348e-08
-8.5553e-06
-1.35275e-05
-1.28353e-05
-6.78222e-06
2.24953e-06
1.08248e-05
1.56728e-05
1.49759e-05
9.02984e-06
1.33109e-10
-8.65614e-06
-1.35964e-05
-1.28491e-05
-6.7351e-06
2.33954e-06
1.09243e-05
1.57431e-05
1.49925e-05
8.9825e-06
-5.81343e-08
-8.70859e-06
-1.36218e-05
-1.28409e-05
-6.69541e-06
2.39563e-06
1.09763e-05
1.57698e-05
1.49858e-05
8.94216e-06
-5.82412e-08
-8.7087e-06
-1.36219e-05
-1.28409e-05
-6.69536e-06
2.39573e-06
1.09764e-05
1.57699e-05
1.49858e-05
8.94212e-06
1.07026e-12
-8.65634e-06
-1.35966e-05
-1.28492e-05
-6.73508e-06
2.33965e-06
1.09244e-05
1.57432e-05
1.49926e-05
8.98255e-06
9.36575e-08
-8.55532e-06
-1.35277e-05
-1.28355e-05
-6.78252e-06
2.24928e-06
1.08248e-05
1.56729e-05
1.49763e-05
9.03029e-06
1.99134e-07
-8.41166e-06
-1.3402e-05
-1.27729e-05
-6.80712e-06
2.14698e-06
1.06834e-05
1.55461e-05
1.49106e-05
9.054e-06
2.99572e-07
-8.23737e-06
-1.32219e-05
-1.26538e-05
-6.79395e-06
2.04877e-06
1.05117e-05
1.53659e-05
1.47897e-05
9.03903e-06
3.77781e-07
-8.05363e-06
-1.30058e-05
-1.24854e-05
-6.7355e-06
1.97174e-06
1.03296e-05
1.51496e-05
1.46213e-05
8.97914e-06
4.14075e-07
-7.88887e-06
-1.27813e-05
-1.22835e-05
-6.62984e-06
1.93684e-06
1.01655e-05
1.49228e-05
1.44202e-05
8.87363e-06
3.88558e-07
-7.77622e-06
-1.25768e-05
-1.20232e-05
-6.48257e-06
1.96299e-06
1.00571e-05
1.47189e-05
1.41439e-05
8.72193e-06
3.44572e-07
-7.7556e-06
-1.25052e-05
-1.19193e-05
-6.37234e-06
2.01781e-06
1.00326e-05
1.46272e-05
1.40244e-05
8.63001e-06
3.4654e-07
-7.75258e-06
-1.25037e-05
-1.19124e-05
-6.37511e-06
2.01525e-06
1.00306e-05
1.46261e-05
1.40232e-05
8.63152e-06
3.91858e-07
-7.77162e-06
-1.2574e-05
-1.2015e-05
-6.48545e-06
1.95889e-06
1.00531e-05
1.47163e-05
1.41328e-05
8.72393e-06
4.20702e-07
-7.88077e-06
-1.27763e-05
-1.2286e-05
-6.63438e-06
1.92953e-06
1.0158e-05
1.49179e-05
1.44225e-05
8.87741e-06
3.8827e-07
-8.04239e-06
-1.29995e-05
-1.24881e-05
-6.74258e-06
1.96065e-06
1.03188e-05
1.51433e-05
1.46237e-05
8.98555e-06
3.13776e-07
-8.22358e-06
-1.32148e-05
-1.26577e-05
-6.80416e-06
2.03408e-06
1.04982e-05
1.53589e-05
1.47933e-05
9.0487e-06
2.16456e-07
-8.3961e-06
-1.33949e-05
-1.27784e-05
-6.82036e-06
2.12927e-06
1.0668e-05
1.5539e-05
1.4916e-05
9.06683e-06
1.13171e-07
-8.53889e-06
-1.35218e-05
-1.28429e-05
-6.79824e-06
2.22945e-06
1.08083e-05
1.56666e-05
1.49835e-05
9.04576e-06
2.06151e-08
-8.63989e-06
-1.35914e-05
-1.28581e-05
-6.75243e-06
2.31875e-06
1.09079e-05
1.57378e-05
1.50015e-05
8.99978e-06
-3.74414e-08
-8.69266e-06
-1.36174e-05
-1.28506e-05
-6.71339e-06
2.37465e-06
1.09602e-05
1.57652e-05
1.49956e-05
8.96011e-06
-3.75627e-08
-8.69282e-06
-1.36175e-05
-1.28506e-05
-6.71334e-06
2.37475e-06
1.09603e-05
1.57652e-05
1.49957e-05
8.96007e-06
2.0455e-08
-8.6402e-06
-1.35915e-05
-1.28581e-05
-6.75242e-06
2.31886e-06
1.0908e-05
1.57379e-05
1.50016e-05
8.99983e-06
1.13366e-07
-8.53905e-06
-1.35219e-05
-1.28431e-05
-6.79856e-06
2.22919e-06
1.08082e-05
1.56666e-05
1.49839e-05
9.04623e-06
2.17303e-07
-8.39586e-06
-1.33948e-05
-1.27788e-05
-6.82119e-06
2.12836e-06
1.06673e-05
1.55394e-05
1.49166e-05
9.06792e-06
3.15402e-07
-8.22278e-06
-1.32144e-05
-1.26581e-05
-6.80551e-06
2.03242e-06
1.04968e-05
1.53588e-05
1.47939e-05
9.05043e-06
3.90676e-07
-8.04094e-06
-1.29987e-05
-1.24885e-05
-6.74434e-06
1.95826e-06
1.03167e-05
1.51427e-05
1.46243e-05
8.98781e-06
4.23792e-07
-7.87866e-06
-1.27751e-05
-1.22862e-05
-6.63636e-06
1.92652e-06
1.01552e-05
1.49168e-05
1.44229e-05
8.87999e-06
3.95428e-07
-7.76889e-06
-1.25723e-05
-1.20168e-05
-6.4875e-06
1.95544e-06
1.00496e-05
1.47146e-05
1.41351e-05
8.72661e-06
3.50214e-07
-7.74965e-06
-1.25018e-05
-1.19141e-05
-6.37706e-06
2.01167e-06
1.00269e-05
1.46242e-05
1.40247e-05
8.63416e-06
3.55372e-07
-7.74365e-06
-1.24982e-05
-1.1905e-05
-6.3817e-06
2.00579e-06
1.00218e-05
1.46208e-05
1.40164e-05
8.63782e-06
4.01424e-07
-7.76179e-06
-1.25678e-05
-1.20069e-05
-6.49209e-06
1.94862e-06
1.00431e-05
1.47101e-05
1.41246e-05
8.73036e-06
4.32048e-07
-7.86898e-06
-1.27688e-05
-1.22888e-05
-6.6418e-06
1.91754e-06
1.0146e-05
1.49105e-05
1.44259e-05
8.88458e-06
4.01671e-07
-8.02882e-06
-1.29912e-05
-1.24909e-05
-6.75127e-06
1.94661e-06
1.03049e-05
1.51351e-05
1.4627e-05
8.99398e-06
3.29133e-07
-8.20854e-06
-1.32062e-05
-1.26611e-05
-6.81451e-06
2.01811e-06
1.04829e-05
1.53505e-05
1.47971e-05
9.0588e-06
2.33437e-07
-8.38008e-06
-1.33863e-05
-1.27827e-05
-6.8323e-06
2.11172e-06
1.06517e-05
1.55307e-05
1.49207e-05
9.07854e-06
1.31287e-07
-8.52241e-06
-1.35137e-05
-1.28481e-05
-6.81148e-06
2.21082e-06
1.07915e-05
1.56589e-05
1.49891e-05
9.0588e-06
3.93424e-08
-8.62338e-06
-1.35837e-05
-1.28641e-05
-6.76657e-06
2.29956e-06
1.0891e-05
1.57305e-05
1.50079e-05
9.01377e-06
-1.84952e-08
-8.67628e-06
-1.36101e-05
-1.28571e-05
-6.72799e-06
2.35526e-06
1.09434e-05
1.57581e-05
1.50025e-05
8.97459e-06
-1.86193e-08
-8.67643e-06
-1.36102e-05
-1.28571e-05
-6.72794e-06
2.35535e-06
1.09435e-05
1.57582e-05
1.50025e-05
8.97456e-06
3.91756e-08
-8.62366e-06
-1.35838e-05
-1.28641e-05
-6.76656e-06
2.29965e-06
1.08911e-05
1.57307e-05
1.5008e-05
9.01383e-06
1.31476e-07
-8.52254e-06
-1.35138e-05
-1.28482e-05
-6.81179e-06
2.21054e-06
1.07914e-05
1.5659e-05
1.49894e-05
9.05928e-06
2.3428e-07
-8.37981e-06
-1.33862e-05
-1.27829e-05
-6.83312e-06
2.1108e-06
1.0651e-05
1.55307e-05
1.49212e-05
9.07964e-06
3.3075e-07
-8.20771e-06
-1.32058e-05
-1.26613e-05
-6.81585e-06
2.01643e-06
1.04815e-05
1.53501e-05
1.47976e-05
9.06054e-06
4.04062e-07
-8.02734e-06
-1.29903e-05
-1.2491e-05
-6.75302e-06
1.94421e-06
1.03028e-05
1.51343e-05
1.46275e-05
8.99624e-06
4.35117e-07
-7.86685e-06
-1.27674e-05
-1.22885e-05
-6.64374e-06
1.91451e-06
1.01432e-05
1.49091e-05
1.4426e-05
8.88715e-06
4.04966e-07
-7.75904e-06
-1.25658e-05
-1.20099e-05
-6.4941e-06
1.94517e-06
1.00396e-05
1.47081e-05
1.41275e-05
8.733e-06
3.59016e-07
-7.7407e-06
-1.24961e-05
-1.19078e-05
-6.38365e-06
2.00223e-06
1.0018e-05
1.46186e-05
1.4019e-05
8.64039e-06
3.65246e-07
-7.73473e-06
-1.24939e-05
-1.19001e-05
-6.38974e-06
1.99527e-06
1.00127e-05
1.46166e-05
1.40105e-05
8.64557e-06
4.11786e-07
-7.75227e-06
-1.2563e-05
-1.20016e-05
-6.50011e-06
1.93754e-06
1.00333e-05
1.47053e-05
1.41181e-05
8.73816e-06
4.43588e-07
-7.85821e-06
-1.27632e-05
-1.2293e-05
-6.65031e-06
1.90532e-06
1.0135e-05
1.49049e-05
1.4431e-05
8.89282e-06
4.14552e-07
-8.01693e-06
-1.29851e-05
-1.24951e-05
-6.76063e-06
1.93306e-06
1.02928e-05
1.51291e-05
1.46319e-05
9.00304e-06
3.43276e-07
-8.19575e-06
-1.31998e-05
-1.26655e-05
-6.82499e-06
2.00331e-06
1.04698e-05
1.53442e-05
1.48022e-05
9.06898e-06
2.48621e-07
-8.36671e-06
-1.33798e-05
-1.27876e-05
-6.84385e-06
2.09592e-06
1.0638e-05
1.55245e-05
1.49263e-05
9.08979e-06
1.47199e-07
-8.50877e-06
-1.35074e-05
-1.28536e-05
-6.82388e-06
2.19433e-06
1.07775e-05
1.5653e-05
1.49953e-05
9.07093e-06
5.56498e-08
-8.60973e-06
-1.35777e-05
-1.28702e-05
-6.77956e-06
2.2827e-06
1.0877e-05
1.57247e-05
1.50146e-05
9.02651e-06
-2.04685e-09
-8.66274e-06
-1.36044e-05
-1.28636e-05
-6.74127e-06
2.33827e-06
1.09295e-05
1.57526e-05
1.50096e-05
8.98764e-06
-2.1702e-09
-8.66288e-06
-1.36045e-05
-1.28636e-05
-6.74122e-06
2.33837e-06
1.09296e-05
1.57527e-05
1.50095e-05
8.98761e-06
5.5486e-08
-8.61001e-06
-1.35779e-05
-1.28702e-05
-6.77956e-06
2.2828e-06
1.08772e-05
1.57249e-05
1.50146e-05
9.02658e-06
1.47394e-07
-8.50889e-06
-1.35076e-05
-1.28538e-05
-6.8242e-06
2.19405e-06
1.07775e-05
1.56531e-05
1.49955e-05
9.07141e-06
2.49472e-07
-8.36642e-06
-1.33797e-05
-1.27879e-05
-6.84467e-06
2.095e-06
1.06374e-05
1.55244e-05
1.49267e-05
9.09089e-06
3.449e-07
-8.19492e-06
-1.31993e-05
-1.26658e-05
-6.82635e-06
2.00164e-06
1.04685e-05
1.53438e-05
1.48027e-05
9.07073e-06
4.16947e-07
-8.01544e-06
-1.29841e-05
-1.24952e-05
-6.76239e-06
1.93067e-06
1.02907e-05
1.51281e-05
1.46322e-05
9.00531e-06
4.4666e-07
-7.85606e-06
-1.27617e-05
-1.22928e-05
-6.65227e-06
1.90231e-06
1.01322e-05
1.49034e-05
1.44309e-05
8.89538e-06
4.1533e-07
-7.74949e-06
-1.25609e-05
-1.20047e-05
-6.5021e-06
1.9341e-06
1.00299e-05
1.47032e-05
1.41219e-05
8.74076e-06
3.6889e-07
-7.73175e-06
-1.24916e-05
-1.1903e-05
-6.39161e-06
1.99171e-06
1.0009e-05
1.46143e-05
1.4014e-05
8.64809e-06
3.70513e-07
-7.72968e-06
-1.24911e-05
-1.18973e-05
-6.39382e-06
1.98956e-06
1.00074e-05
1.46138e-05
1.40065e-05
8.64944e-06
4.17278e-07
-7.74695e-06
-1.256e-05
-1.19985e-05
-6.50417e-06
1.93156e-06
1.00277e-05
1.47023e-05
1.41139e-05
8.74205e-06
4.49615e-07
-7.85236e-06
-1.27599e-05
-1.22947e-05
-6.65459e-06
1.89882e-06
1.01288e-05
1.49015e-05
1.44334e-05
8.89692e-06
4.21178e-07
-8.0106e-06
-1.29816e-05
-1.24969e-05
-6.76531e-06
1.92597e-06
1.02861e-05
1.51255e-05
1.46342e-05
9.00751e-06
3.50463e-07
-8.18905e-06
-1.31962e-05
-1.26675e-05
-6.83019e-06
1.99567e-06
1.04628e-05
1.53406e-05
1.48046e-05
9.07398e-06
2.56264e-07
-8.35975e-06
-1.33762e-05
-1.27898e-05
-6.84953e-06
2.08783e-06
1.06307e-05
1.55208e-05
1.4929e-05
9.09528e-06
1.55153e-07
-8.50171e-06
-1.35039e-05
-1.28561e-05
-6.82996e-06
2.18594e-06
1.07701e-05
1.56494e-05
1.49982e-05
9.07682e-06
6.37634e-08
-8.60267e-06
-1.35743e-05
-1.28729e-05
-6.78589e-06
2.27417e-06
1.08696e-05
1.57213e-05
1.50177e-05
9.03267e-06
6.11729e-09
-8.65572e-06
-1.3601e-05
-1.28665e-05
-6.74773e-06
2.32968e-06
1.09221e-05
1.57493e-05
1.50128e-05
8.99393e-06
5.99556e-09
-8.65585e-06
-1.36011e-05
-1.28664e-05
-6.74769e-06
2.32978e-06
1.09222e-05
1.57494e-05
1.50128e-05
8.9939e-06
6.36008e-08
-8.60292e-06
-1.35744e-05
-1.28729e-05
-6.7859e-06
2.27426e-06
1.08698e-05
1.57215e-05
1.50177e-05
9.03274e-06
1.55348e-07
-8.50179e-06
-1.3504e-05
-1.28562e-05
-6.83029e-06
2.18566e-06
1.07701e-05
1.56496e-05
1.49984e-05
9.07731e-06
2.57115e-07
-8.35942e-06
-1.3376e-05
-1.27901e-05
-6.85037e-06
2.08691e-06
1.06301e-05
1.55208e-05
1.49293e-05
9.09639e-06
3.5209e-07
-8.18814e-06
-1.31957e-05
-1.26678e-05
-6.83155e-06
1.994e-06
1.04615e-05
1.53401e-05
1.4805e-05
9.07573e-06
4.23579e-07
-8.00905e-06
-1.29807e-05
-1.2497e-05
-6.76707e-06
1.92357e-06
1.02841e-05
1.51246e-05
1.46344e-05
9.00979e-06
4.52693e-07
-7.85015e-06
-1.27585e-05
-1.22945e-05
-6.65655e-06
1.89582e-06
1.0126e-05
1.49e-05
1.44332e-05
8.89948e-06
4.20828e-07
-7.74412e-06
-1.2558e-05
-1.20019e-05
-6.50614e-06
1.92813e-06
1.00242e-05
1.47002e-05
1.41182e-05
8.74464e-06
3.74164e-07
-7.72665e-06
-1.24889e-05
-1.19004e-05
-6.39566e-06
1.986e-06
1.00038e-05
1.46115e-05
1.40105e-05
8.65194e-06
3.70466e-07
-7.72978e-06
-1.24912e-05
-1.18973e-05
-6.39394e-06
1.98943e-06
1.00073e-05
1.46138e-05
1.40064e-05
8.64947e-06
4.17233e-07
-7.74704e-06
-1.25601e-05
-1.19986e-05
-6.50429e-06
1.93143e-06
1.00276e-05
1.47022e-05
1.41138e-05
8.74208e-06
4.49578e-07
-7.85245e-06
-1.276e-05
-1.22948e-05
-6.65472e-06
1.89869e-06
1.01287e-05
1.49015e-05
1.44335e-05
8.89695e-06
4.21149e-07
-8.01068e-06
-1.29817e-05
-1.2497e-05
-6.76544e-06
1.92582e-06
1.0286e-05
1.51255e-05
1.46343e-05
9.00755e-06
3.50441e-07
-8.18913e-06
-1.31963e-05
-1.26676e-05
-6.83034e-06
1.99551e-06
1.04627e-05
1.53405e-05
1.48047e-05
9.07403e-06
2.56248e-07
-8.35983e-06
-1.33763e-05
-1.27899e-05
-6.84968e-06
2.08767e-06
1.06306e-05
1.55208e-05
1.4929e-05
9.09534e-06
1.5514e-07
-8.50179e-06
-1.3504e-05
-1.28562e-05
-6.83011e-06
2.18578e-06
1.077e-05
1.56494e-05
1.49983e-05
9.07688e-06
6.3751e-08
-8.60275e-06
-1.35743e-05
-1.2873e-05
-6.78605e-06
2.274e-06
1.08695e-05
1.57213e-05
1.50178e-05
9.03274e-06
6.10501e-09
-8.6558e-06
-1.36011e-05
-1.28666e-05
-6.74789e-06
2.32952e-06
1.0922e-05
1.57493e-05
1.50129e-05
8.994e-06
5.98344e-09
-8.65593e-06
-1.36012e-05
-1.28666e-05
-6.74785e-06
2.32961e-06
1.09221e-05
1.57494e-05
1.50129e-05
8.99397e-06
6.35889e-08
-8.603e-06
-1.35745e-05
-1.2873e-05
-6.78606e-06
2.27409e-06
1.08697e-05
1.57215e-05
1.50178e-05
9.03281e-06
1.55335e-07
-8.50187e-06
-1.35041e-05
-1.28563e-05
-6.83045e-06
2.1855e-06
1.077e-05
1.56495e-05
1.49985e-05
9.07737e-06
2.57099e-07
-8.3595e-06
-1.33761e-05
-1.27902e-05
-6.85052e-06
2.08674e-06
1.063e-05
1.55207e-05
1.49294e-05
9.09645e-06
3.52069e-07
-8.18822e-06
-1.31958e-05
-1.26679e-05
-6.83169e-06
1.99384e-06
1.04614e-05
1.53401e-05
1.48051e-05
9.07578e-06
4.23552e-07
-8.00913e-06
-1.29808e-05
-1.24971e-05
-6.7672e-06
1.92342e-06
1.02839e-05
1.51245e-05
1.46345e-05
9.00984e-06
4.52658e-07
-7.85024e-06
-1.27585e-05
-1.22946e-05
-6.65667e-06
1.89568e-06
1.01259e-05
1.48999e-05
1.44332e-05
8.89951e-06
4.20785e-07
-7.74421e-06
-1.25581e-05
-1.2002e-05
-6.50626e-06
1.928e-06
1.00242e-05
1.47001e-05
1.41182e-05
8.74467e-06
3.74118e-07
-7.72674e-06
-1.2489e-05
-1.19004e-05
-6.39577e-06
1.98587e-06
1.00037e-05
1.46114e-05
1.40105e-05
8.65197e-06
3.65007e-07
-7.73503e-06
-1.24941e-05
-1.19001e-05
-6.38995e-06
1.99502e-06
1.00125e-05
1.46165e-05
1.40103e-05
8.64553e-06
4.11557e-07
-7.75255e-06
-1.25632e-05
-1.20016e-05
-6.50032e-06
1.93728e-06
1.00331e-05
1.47052e-05
1.41179e-05
8.73812e-06
4.43382e-07
-7.85848e-06
-1.27634e-05
-1.22932e-05
-6.65053e-06
1.90503e-06
1.01348e-05
1.49047e-05
1.44311e-05
8.8928e-06
4.14372e-07
-8.01718e-06
-1.29853e-05
-1.24953e-05
-6.76087e-06
1.93274e-06
1.02925e-05
1.51289e-05
1.4632e-05
9.00304e-06
3.4312e-07
-8.19599e-06
-1.32e-05
-1.26658e-05
-6.82526e-06
2.00297e-06
1.04695e-05
1.53441e-05
1.48023e-05
9.06901e-06
2.48483e-07
-8.36694e-06
-1.338e-05
-1.27879e-05
-6.84414e-06
2.09556e-06
1.06377e-05
1.55243e-05
1.49264e-05
9.08984e-06
1.47072e-07
-8.509e-06
-1.35076e-05
-1.28538e-05
-6.8242e-06
2.19395e-06
1.07772e-05
1.56528e-05
1.49954e-05
9.071e-06
5.55287e-08
-8.60996e-06
-1.35778e-05
-1.28704e-05
-6.77989e-06
2.28232e-06
1.08767e-05
1.57246e-05
1.50147e-05
9.02659e-06
-2.16614e-09
-8.66297e-06
-1.36045e-05
-1.28639e-05
-6.7416e-06
2.33789e-06
1.09291e-05
1.57525e-05
1.50097e-05
8.98773e-06
-2.28788e-09
-8.66311e-06
-1.36047e-05
-1.28638e-05
-6.74156e-06
2.33799e-06
1.09293e-05
1.57526e-05
1.50097e-05
8.98769e-06
5.53694e-08
-8.61023e-06
-1.3578e-05
-1.28705e-05
-6.77988e-06
2.28242e-06
1.08769e-05
1.57248e-05
1.50148e-05
9.02666e-06
1.47275e-07
-8.50911e-06
-1.35077e-05
-1.2854e-05
-6.82452e-06
2.19367e-06
1.07771e-05
1.5653e-05
1.49956e-05
9.07148e-06
2.49343e-07
-8.36663e-06
-1.33799e-05
-1.27881e-05
-6.84497e-06
2.09463e-06
1.06371e-05
1.55243e-05
1.49268e-05
9.09094e-06
3.44756e-07
-8.19513e-06
-1.31995e-05
-1.2666e-05
-6.82662e-06
2.0013e-06
1.04682e-05
1.53436e-05
1.48027e-05
9.07075e-06
4.16781e-07
-8.01567e-06
-1.29843e-05
-1.24954e-05
-6.76264e-06
1.93035e-06
1.02904e-05
1.5128e-05
1.46322e-05
9.00531e-06
4.46471e-07
-7.8563e-06
-1.27618e-05
-1.22929e-05
-6.6525e-06
1.90202e-06
1.01319e-05
1.49032e-05
1.4431e-05
8.89536e-06
4.15119e-07
-7.74975e-06
-1.25611e-05
-1.20047e-05
-6.50231e-06
1.93384e-06
1.00296e-05
1.47031e-05
1.41217e-05
8.74072e-06
3.6867e-07
-7.73202e-06
-1.24918e-05
-1.1903e-05
-6.39182e-06
1.99146e-06
1.00088e-05
1.46142e-05
1.40138e-05
8.64805e-06
3.55164e-07
-7.74395e-06
-1.24985e-05
-1.1905e-05
-6.38207e-06
2.00538e-06
1.00214e-05
1.46207e-05
1.40162e-05
8.63788e-06
4.01238e-07
-7.76206e-06
-1.2568e-05
-1.20069e-05
-6.49246e-06
1.94818e-06
1.00427e-05
1.47099e-05
1.41243e-05
8.73043e-06
4.31913e-07
-7.8692e-06
-1.27689e-05
-1.22891e-05
-6.6422e-06
1.91705e-06
1.01456e-05
1.49103e-05
1.44261e-05
8.88467e-06
4.01591e-07
-8.029e-06
-1.29913e-05
-1.24913e-05
-6.75171e-06
1.94606e-06
1.03045e-05
1.51349e-05
1.46272e-05
8.99411e-06
3.29103e-07
-8.20869e-06
-1.32063e-05
-1.26614e-05
-6.815e-06
2.01751e-06
1.04824e-05
1.53503e-05
1.47973e-05
9.05898e-06
2.33447e-07
-8.38021e-06
-1.33864e-05
-1.2783e-05
-6.83283e-06
2.11108e-06
1.06512e-05
1.55305e-05
1.49209e-05
9.07876e-06
1.31324e-07
-8.52253e-06
-1.35139e-05
-1.28485e-05
-6.81204e-06
2.21015e-06
1.0791e-05
1.56588e-05
1.49893e-05
9.05906e-06
3.93933e-08
-8.6235e-06
-1.35838e-05
-1.28645e-05
-6.76716e-06
2.29888e-06
1.08905e-05
1.57303e-05
1.50081e-05
9.01405e-06
-1.84393e-08
-8.67641e-06
-1.36103e-05
-1.28576e-05
-6.72859e-06
2.35458e-06
1.09428e-05
1.5758e-05
1.50028e-05
8.97488e-06
-1.85614e-08
-8.67655e-06
-1.36104e-05
-1.28575e-05
-6.72854e-06
2.35467e-06
1.0943e-05
1.57581e-05
1.50028e-05
8.97485e-06
3.92325e-08
-8.62378e-06
-1.3584e-05
-1.28645e-05
-6.76715e-06
2.29898e-06
1.08906e-05
1.57305e-05
1.50082e-05
9.01411e-06
1.31523e-07
-8.52265e-06
-1.3514e-05
-1.28486e-05
-6.81236e-06
2.20988e-06
1.07909e-05
1.56589e-05
1.49896e-05
9.05954e-06
2.34304e-07
-8.37992e-06
-1.33863e-05
-1.27833e-05
-6.83365e-06
2.11016e-06
1.06505e-05
1.55305e-05
1.49214e-05
9.07986e-06
3.30737e-07
-8.20784e-06
-1.32059e-05
-1.26617e-05
-6.81633e-06
2.01584e-06
1.0481e-05
1.53499e-05
1.47978e-05
9.06071e-06
4.04002e-07
-8.0275e-06
-1.29905e-05
-1.24914e-05
-6.75345e-06
1.94366e-06
1.03024e-05
1.51341e-05
1.46276e-05
8.99637e-06
4.35004e-07
-7.86705e-06
-1.27676e-05
-1.22889e-05
-6.64414e-06
1.91403e-06
1.01428e-05
1.49089e-05
1.44262e-05
8.88724e-06
4.04806e-07
-7.75928e-06
-1.2566e-05
-1.20099e-05
-6.49446e-06
1.94473e-06
1.00392e-05
1.4708e-05
1.41272e-05
8.73306e-06
3.58835e-07
-7.74096e-06
-1.24963e-05
-1.19077e-05
-6.38401e-06
2.00182e-06
1.00177e-05
1.46185e-05
1.40188e-05
8.64045e-06
3.46211e-07
-7.75297e-06
-1.25039e-05
-1.19124e-05
-6.37528e-06
2.01504e-06
1.00304e-05
1.4626e-05
1.4023e-05
8.63143e-06
3.91553e-07
-7.77198e-06
-1.25742e-05
-1.20149e-05
-6.48562e-06
1.95865e-06
1.00529e-05
1.47161e-05
1.41325e-05
8.72385e-06
4.20454e-07
-7.88106e-06
-1.27764e-05
-1.22862e-05
-6.63458e-06
1.92923e-06
1.01577e-05
1.49177e-05
1.44226e-05
8.87735e-06
3.88089e-07
-8.04262e-06
-1.29996e-05
-1.24883e-05
-6.74283e-06
1.96028e-06
1.03184e-05
1.51431e-05
1.46238e-05
8.98553e-06
3.13658e-07
-8.22375e-06
-1.32149e-05
-1.26579e-05
-6.80446e-06
2.03364e-06
1.04977e-05
1.53586e-05
1.47933e-05
9.04874e-06
2.16389e-07
-8.39624e-06
-1.3395e-05
-1.27787e-05
-6.82072e-06
2.12878e-06
1.06675e-05
1.55388e-05
1.49161e-05
9.06693e-06
1.13139e-07
-8.53901e-06
-1.35219e-05
-1.28432e-05
-6.79864e-06
2.22892e-06
1.08078e-05
1.56664e-05
1.49836e-05
9.0459e-06
2.0602e-08
-8.64001e-06
-1.35915e-05
-1.28584e-05
-6.75287e-06
2.31821e-06
1.09074e-05
1.57377e-05
1.50016e-05
8.99995e-06
-3.74477e-08
-8.69279e-06
-1.36176e-05
-1.2851e-05
-6.71384e-06
2.3741e-06
1.09597e-05
1.5765e-05
1.49958e-05
8.9603e-06
-3.7568e-08
-8.69295e-06
-1.36176e-05
-1.28509e-05
-6.71379e-06
2.3742e-06
1.09598e-05
1.57651e-05
1.49958e-05
8.96026e-06
2.04457e-08
-8.64031e-06
-1.35916e-05
-1.28584e-05
-6.75286e-06
2.31832e-06
1.09075e-05
1.57378e-05
1.50017e-05
9.00001e-06
1.13342e-07
-8.53916e-06
-1.3522e-05
-1.28433e-05
-6.79897e-06
2.22867e-06
1.08077e-05
1.56665e-05
1.4984e-05
9.04637e-06
2.17247e-07
-8.39598e-06
-1.33948e-05
-1.2779e-05
-6.82155e-06
2.12788e-06
1.06669e-05
1.5539e-05
1.49166e-05
9.06802e-06
3.15297e-07
-8.22292e-06
-1.32145e-05
-1.26583e-05
-6.80581e-06
2.03198e-06
1.04964e-05
1.53585e-05
1.47939e-05
9.05047e-06
3.90511e-07
-8.04113e-06
-1.29988e-05
-1.24887e-05
-6.74458e-06
1.9579e-06
1.03163e-05
1.51424e-05
1.46243e-05
8.98779e-06
4.23563e-07
-7.8789e-06
-1.27752e-05
-1.22864e-05
-6.63656e-06
1.92622e-06
1.01549e-05
1.49165e-05
1.44229e-05
8.87993e-06
3.95142e-07
-7.76919e-06
-1.25724e-05
-1.20167e-05
-6.48767e-06
1.9552e-06
1.00494e-05
1.47144e-05
1.41348e-05
8.72652e-06
3.49905e-07
-7.74998e-06
-1.2502e-05
-1.1914e-05
-6.37722e-06
2.01146e-06
1.00267e-05
1.4624e-05
1.40245e-05
8.63406e-06
3.40834e-07
-7.75881e-06
-1.2508e-05
-1.19186e-05
-6.37054e-06
2.02122e-06
1.00361e-05
1.46291e-05
1.40234e-05
8.62744e-06
3.84949e-07
-7.7792e-06
-1.25793e-05
-1.2022e-05
-6.48067e-06
1.96623e-06
1.00603e-05
1.47205e-05
1.41421e-05
8.7193e-06
4.11018e-07
-7.89114e-06
-1.27832e-05
-1.22834e-05
-6.62805e-06
1.93957e-06
1.0168e-05
1.49238e-05
1.44197e-05
8.87115e-06
3.7549e-07
-8.05517e-06
-1.30072e-05
-1.2485e-05
-6.734e-06
1.97376e-06
1.03312e-05
1.515e-05
1.46205e-05
8.97704e-06
2.98135e-07
-8.23821e-06
-1.32228e-05
-1.26534e-05
-6.79293e-06
2.04998e-06
1.05125e-05
1.53659e-05
1.4789e-05
9.03754e-06
1.98533e-07
-8.4119e-06
-1.34026e-05
-1.27726e-05
-6.80669e-06
2.14736e-06
1.06835e-05
1.55457e-05
1.49101e-05
9.0532e-06
9.37485e-08
-8.55511e-06
-1.35274e-05
-1.28355e-05
-6.78265e-06
2.24896e-06
1.08243e-05
1.56726e-05
1.4976e-05
9.03016e-06
4.69304e-10
-8.65595e-06
-1.35963e-05
-1.28494e-05
-6.73557e-06
2.33895e-06
1.09237e-05
1.57429e-05
1.49926e-05
8.98287e-06
-5.77972e-08
-8.70842e-06
-1.36217e-05
-1.28411e-05
-6.69591e-06
2.39502e-06
1.09757e-05
1.57696e-05
1.4986e-05
8.94255e-06
-5.79152e-08
-8.70855e-06
-1.36219e-05
-1.28411e-05
-6.69585e-06
2.39512e-06
1.09758e-05
1.57697e-05
1.4986e-05
8.94251e-06
3.13407e-10
-8.65619e-06
-1.35965e-05
-1.28494e-05
-6.73555e-06
2.33905e-06
1.09239e-05
1.5743e-05
1.49928e-05
8.98292e-06
9.39489e-08
-8.55518e-06
-1.35277e-05
-1.28357e-05
-6.78296e-06
2.2487e-06
1.08242e-05
1.56727e-05
1.49764e-05
9.03063e-06
1.99391e-07
-8.41154e-06
-1.34019e-05
-1.2773e-05
-6.80751e-06
2.14645e-06
1.06829e-05
1.55458e-05
1.49107e-05
9.05428e-06
2.99777e-07
-8.23728e-06
-1.32219e-05
-1.2654e-05
-6.79427e-06
2.04831e-06
1.05112e-05
1.53657e-05
1.47898e-05
9.03926e-06
3.77918e-07
-8.0536e-06
-1.30058e-05
-1.24855e-05
-6.73576e-06
1.97136e-06
1.03291e-05
1.51494e-05
1.46213e-05
8.9793e-06
4.14137e-07
-7.88891e-06
-1.27813e-05
-1.22836e-05
-6.63005e-06
1.93654e-06
1.01652e-05
1.49227e-05
1.44203e-05
8.87374e-06
3.88556e-07
-7.77634e-06
-1.25769e-05
-1.20232e-05
-6.48276e-06
1.96276e-06
1.00568e-05
1.47188e-05
1.41438e-05
8.72202e-06
3.44545e-07
-7.75576e-06
-1.25054e-05
-1.19195e-05
-6.37254e-06
2.01762e-06
1.00324e-05
1.46272e-05
1.40243e-05
8.63009e-06
)
;

boundaryField
{
    bottomWall
    {
        type            zeroGradient;
    }
    topWall
    {
        type            zeroGradient;
    }
    sides1_half0
    {
        type            cyclic;
    }
    sides1_half1
    {
        type            cyclic;
    }
    inout1_half0
    {
        type            cyclic;
    }
    inout1_half1
    {
        type            cyclic;
    }
}


// ************************************************************************* //
