/*--------------------------------*- C++ -*----------------------------------*\
| =========                 |                                                 |
| \\      /  F ield         | OpenFOAM: The Open Source CFD Toolbox           |
|  \\    /   O peration     | Version:  2.3.0                                 |
|   \\  /    A nd           | Web:      www.OpenFOAM.org                      |
|    \\/     M anipulation  |                                                 |
\*---------------------------------------------------------------------------*/
FoamFile
{
    version     2.0;
    format      ascii;
    class       surfaceScalarField;
    location    "400";
    object      phi;
}
// * * * * * * * * * * * * * * * * * * * * * * * * * * * * * * * * * * * * * //

dimensions      [0 3 -1 0 0 0 0];

internalField   nonuniform List<scalar> 
4940
(
0.0798881
5.10803e-06
-6.93539e-10
0.0798829
5.18905e-06
5.99956e-09
0.0798796
3.32616e-06
1.13422e-08
0.0798792
3.58443e-07
1.26149e-08
0.079882
-2.81058e-06
9.28682e-09
0.0798871
-5.07588e-06
1.34358e-09
0.0798925
-5.407e-06
-7.23205e-09
0.079896
-3.54418e-06
-1.26547e-08
0.0798963
-2.15578e-07
-1.23525e-08
3.0715e-06
-7.72814e-09
0.0952431
9.4195e-06
-3.41221e-09
0.0952388
9.41726e-06
6.3089e-09
0.0952365
5.6705e-06
1.43097e-08
0.0952371
-2.41901e-07
1.71697e-08
0.0952402
-6.00619e-06
1.41097e-08
0.0952446
-9.43263e-06
4.50545e-09
0.0952484
-9.24929e-06
-7.19797e-09
0.0952505
-5.56016e-06
-1.59438e-08
0.0952501
1.66958e-07
-1.72747e-08
5.81586e-06
-1.25637e-08
0.103789
1.23977e-05
-7.02087e-09
0.103787
1.12971e-05
5.67512e-09
0.103787
5.652e-06
1.66843e-08
0.103789
-2.19536e-06
2.22848e-08
0.103792
-9.08313e-06
1.92386e-08
0.103795
-1.23811e-05
8.22851e-09
0.103797
-1.0953e-05
-6.33417e-09
0.103797
-5.45123e-06
-1.82953e-08
0.103795
1.98778e-06
-2.27125e-08
8.7293e-06
-1.78591e-08
0.109654
1.37148e-05
-1.05794e-08
0.109654
1.12763e-05
5.23644e-09
0.109655
4.27293e-06
1.93968e-08
0.109657
-4.41163e-06
2.70952e-08
0.109659
-1.1254e-05
2.43581e-08
0.109661
-1.36489e-05
1.17983e-08
0.10966
-1.08517e-05
-5.75228e-09
0.109659
-4.0649e-06
-2.0904e-08
0.109657
4.11914e-06
-2.75917e-08
1.08481e-05
-2.31076e-08
0.113996
1.33866e-05
-1.36839e-08
0.113997
9.84895e-06
5.23581e-09
0.113999
2.30571e-06
2.24583e-08
0.114001
-6.15204e-06
3.19232e-08
0.114001
-1.20935e-05
2.92016e-08
0.114001
-1.32732e-05
1.48444e-08
0.114
-9.42317e-06
-5.66007e-09
0.113998
-2.13995e-06
-2.39898e-08
0.113996
5.82536e-06
-3.24297e-08
1.17156e-05
-2.80584e-08
0.117263
1.15815e-05
-1.60808e-08
0.117265
7.5617e-06
5.73449e-09
0.117267
4.56817e-07
2.56238e-08
0.117268
-6.83478e-06
3.64936e-08
0.117267
-1.13664e-05
3.34307e-08
0.117265
-1.14434e-05
1.71581e-08
0.117263
-7.20009e-06
-6.11899e-09
0.117261
-3.53577e-07
-2.69005e-08
0.11726
6.52903e-06
-3.6955e-08
1.10695e-05
-3.23807e-08
0.119628
8.54402e-06
-1.76521e-08
0.119631
4.9588e-06
6.62719e-09
0.119632
-6.52135e-07
2.86602e-08
0.119631
-6.01075e-06
4.0392e-08
0.119628
-8.96301e-06
3.67387e-08
0.119625
-8.41808e-06
1.86538e-08
0.119623
-4.70431e-06
-6.95855e-09
0.119622
6.99769e-07
-2.97999e-08
0.119623
5.77617e-06
-4.08198e-08
8.76989e-06
-3.57676e-08
0.121154
4.55842e-06
-1.8467e-08
0.121157
2.41999e-06
7.62584e-09
0.121157
-7.06823e-07
3.10274e-08
0.121154
-3.55792e-06
4.32087e-08
0.12115
-4.99179e-06
3.89291e-08
0.121146
-4.48355e-06
1.94157e-08
0.121144
-2.29041e-06
-7.86449e-09
0.121144
7.22234e-07
-3.20989e-08
0.121146
3.43112e-06
-4.36104e-08
4.89903e-06
-3.80165e-08
0.121892
1.85489e-08
-1.87513e-08
0.121894
2.11886e-08
8.23674e-09
0.121894
1.406e-08
3.23277e-08
0.12189
-5.42076e-10
4.46671e-08
0.121885
-1.42744e-08
3.99867e-08
0.12188
-2.06616e-08
1.96886e-08
0.121878
-1.83601e-08
-8.52458e-09
0.121879
-1.01593e-08
-3.3369e-08
0.121882
3.26375e-10
-4.5057e-08
1.01482e-08
-3.91029e-08
0.121892
-4.52765e-06
-1.87521e-08
0.121894
-2.3814e-06
8.25329e-09
0.121894
7.34999e-07
3.23341e-08
0.12189
3.56064e-06
4.46698e-08
0.121885
4.96935e-06
3.99905e-08
0.12188
4.44833e-06
1.96898e-08
0.121878
2.25749e-06
-8.52087e-09
0.121879
-7.42453e-07
-3.33677e-08
0.121882
-3.43411e-06
-4.506e-08
-4.88498e-06
-3.91061e-08
0.121154
-8.52886e-06
-1.84706e-08
0.121157
-4.92963e-06
7.63466e-09
0.121157
6.80377e-07
3.10418e-08
0.121154
6.02289e-06
4.3216e-08
0.12115
8.95568e-06
3.89405e-08
0.121146
8.39791e-06
1.94193e-08
0.121144
4.68074e-06
-7.8714e-09
0.121144
-7.19775e-07
-3.20932e-08
0.121146
-5.78811e-06
-4.36185e-08
-8.77112e-06
-3.80254e-08
0.119628
-1.15842e-05
-1.76616e-08
0.119631
-7.54386e-06
6.61946e-09
0.119632
-4.29181e-07
2.86738e-08
0.119631
6.85718e-06
4.04e-08
0.119628
1.13761e-05
3.6757e-08
0.119625
1.14405e-05
1.86623e-08
0.119623
7.18742e-06
-6.96558e-09
0.119622
3.3425e-07
-2.97852e-08
0.119623
-6.55052e-06
-4.08286e-08
-1.10876e-05
-3.57808e-08
0.117263
-1.34039e-05
-1.60983e-08
0.117265
-9.8418e-06
5.72091e-09
0.117267
-2.28042e-06
2.56587e-08
0.117268
6.18138e-06
3.64983e-08
0.117267
1.21164e-05
3.34533e-08
0.117265
1.32844e-05
1.71724e-08
0.117263
9.42033e-06
-6.11946e-09
0.117261
2.12267e-06
-2.68849e-08
0.11726
-5.85288e-06
-3.69563e-08
-1.17461e-05
-3.23968e-08
0.113996
-1.37414e-05
-1.37113e-08
0.113997
-1.1278e-05
5.2161e-09
0.113999
-4.25205e-06
2.25304e-08
0.114001
4.44289e-06
3.1932e-08
0.114001
1.12839e-05
2.92249e-08
0.114001
1.36691e-05
1.4863e-08
0.114
1.08565e-05
-5.65113e-09
0.113998
4.05133e-06
-2.4037e-08
0.113996
-4.14772e-06
-3.24242e-08
-1.08844e-05
-2.80754e-08
0.109654
-1.24272e-05
-1.06147e-08
0.109654
-1.13046e-05
5.20158e-09
0.109655
-5.63675e-06
1.93731e-08
0.109657
2.22375e-06
2.71015e-08
0.109659
9.1137e-06
2.43786e-08
0.109661
1.24047e-05
1.18202e-08
0.10966
1.09623e-05
-5.7374e-09
0.109659
5.44208e-06
-2.09313e-08
0.109657
-2.01306e-06
-2.75715e-08
-8.76465e-06
-2.31244e-08
0.103789
-9.44481e-06
-7.06088e-09
0.103787
-9.42632e-06
5.63416e-09
0.103787
-5.66099e-06
1.66625e-08
0.103789
2.63547e-07
2.23041e-08
0.103792
6.03156e-06
1.9253e-08
0.103795
9.45369e-06
8.24906e-09
0.103797
9.25919e-06
-6.30822e-09
0.103797
5.55468e-06
-1.8293e-08
0.103795
-1.86169e-07
-2.26857e-08
-5.84402e-06
-1.78748e-08
0.0952431
-5.12129e-06
-3.45183e-09
0.0952388
-5.19356e-06
6.2778e-09
0.0952365
-3.3212e-06
1.42982e-08
0.0952371
-3.47003e-07
1.72112e-08
0.0952402
2.82503e-06
1.41168e-08
0.0952446
5.08841e-06
4.52264e-09
0.0952485
5.41295e-06
-7.16484e-09
0.0952505
3.54024e-06
-1.59268e-08
0.0952501
2.03622e-07
-1.72717e-08
-3.08701e-06
-1.258e-08
0.0798881
-7.25678e-10
0.0798829
5.99206e-09
0.0798795
1.13478e-08
0.0798792
1.26418e-08
0.079882
9.28386e-09
0.0798871
1.35556e-09
0.0798925
-7.19268e-09
0.0798961
-1.2631e-08
0.0798963
-1.23506e-08
-7.75307e-09
0.0798882
5.07405e-06
-2.1797e-09
0.079883
5.19484e-06
8.40483e-09
0.0798796
3.36642e-06
1.68765e-08
0.0798792
4.2005e-07
1.94548e-08
0.0798819
-2.74559e-06
1.45764e-08
0.079887
-5.03539e-06
2.96306e-09
0.0798924
-5.40929e-06
-9.8079e-09
0.079896
-3.59126e-06
-1.84594e-08
0.0798963
-2.84368e-07
-1.87771e-08
3.01009e-06
-1.26687e-08
0.0952431
9.36132e-06
-5.85838e-09
0.0952389
9.43472e-06
8.59385e-09
0.0952365
5.75725e-06
2.05809e-08
0.095237
-1.20514e-07
2.52159e-08
0.0952402
-5.89528e-06
2.08415e-08
0.0952445
-9.37675e-06
7.19669e-09
0.0952484
-9.2694e-06
-9.68646e-09
0.0952504
-5.64762e-06
-2.2517e-08
0.0952501
4.85491e-08
-2.53436e-08
5.7072e-06
-1.89323e-08
0.103789
1.23462e-05
-1.02729e-08
0.103787
1.13445e-05
7.58807e-09
0.103787
5.78127e-06
2.31407e-08
0.103789
-2.03636e-06
3.09242e-08
0.103792
-8.956e-06
2.68832e-08
0.103795
-1.23357e-05
1.17611e-08
0.103797
-1.10046e-05
-8.43002e-09
0.103797
-5.57814e-06
-2.51513e-08
0.103795
1.83501e-06
-3.14152e-08
8.60318e-06
-2.51465e-08
0.109654
1.36859e-05
-1.45341e-08
0.109654
1.13555e-05
6.68904e-09
0.109655
4.4308e-06
2.58344e-08
0.109657
-4.23863e-06
3.61274e-08
0.109659
-1.11337e-05
3.26819e-08
0.109661
-1.36277e-05
1.60555e-08
0.10966
-1.09349e-05
-7.34165e-09
0.109659
-4.21841e-06
-2.77567e-08
0.109657
3.95321e-06
-3.67685e-08
1.07274e-05
-3.1095e-08
0.113996
1.33852e-05
-1.82644e-08
0.113997
9.95143e-06
6.22223e-09
0.113999
2.47336e-06
2.8647e-08
0.114001
-5.98677e-06
4.12147e-08
0.114001
-1.19955e-05
3.80706e-08
0.114001
-1.32795e-05
1.9755e-08
0.114
-9.52842e-06
-6.78284e-09
0.113998
-2.30263e-06
-3.04577e-08
0.113996
5.66643e-06
-4.19122e-08
1.16158e-05
-3.66152e-08
0.117263
1.16027e-05
-2.12051e-08
0.117265
7.67127e-06
6.32434e-09
0.117267
6.12744e-07
3.1744e-08
0.117268
-6.69511e-06
4.59919e-08
0.117267
-1.12976e-05
4.27464e-08
0.117265
-1.14711e-05
2.26081e-08
0.117263
-7.31109e-06
-6.78237e-09
0.117261
-5.04715e-07
-3.34319e-08
0.11726
6.39404e-06
-4.66652e-08
1.09984e-05
-4.1403e-08
0.119628
8.57433e-06
-2.32199e-08
0.11963
5.05319e-06
6.8944e-09
0.119632
-5.30083e-07
3.46526e-08
0.119631
-5.90991e-06
5.00425e-08
0.119628
-8.92263e-06
4.64145e-08
0.119625
-8.45282e-06
2.45497e-08
0.119623
-4.79918e-06
-7.29328e-09
0.119622
5.814e-07
-3.62281e-08
0.119623
5.67812e-06
-5.06874e-08
8.72727e-06
-4.5168e-08
0.121154
4.58e-06
-2.4354e-08
0.121157
2.47541e-06
7.62243e-09
0.121157
-6.39092e-07
3.69442e-08
0.121154
-3.50486e-06
5.29777e-08
0.12115
-4.97398e-06
4.88749e-08
0.121147
-4.50737e-06
2.56286e-08
0.121144
-2.34581e-06
-8.03195e-09
0.121144
6.56424e-07
-3.84313e-08
0.121146
3.37925e-06
-5.36001e-08
4.87992e-06
-4.76939e-08
0.121892
1.84874e-08
-2.48191e-08
0.121894
2.13247e-08
8.13144e-09
0.121894
1.43605e-08
3.82104e-08
0.12189
-1.46912e-10
5.45059e-08
0.121885
-1.39713e-08
5.00779e-08
0.121881
-2.06632e-08
2.60617e-08
0.121878
-1.86465e-08
-8.51198e-09
0.121879
-1.05539e-08
-3.96536e-08
0.121882
-1.21987e-10
-5.51156e-08
9.9772e-09
-4.89306e-08
0.121892
-4.54944e-06
-2.48238e-08
0.121894
-2.43662e-06
8.12184e-09
0.121894
6.67763e-07
3.82112e-08
0.12189
3.5083e-06
5.4512e-08
0.121885
4.95216e-06
5.00825e-08
0.121881
4.47222e-06
2.60651e-08
0.121878
2.31245e-06
-8.51491e-09
0.121879
-6.77302e-07
-3.966e-08
0.121882
-3.38306e-06
-5.51184e-08
-4.86622e-06
-4.89338e-08
0.121154
-8.55956e-06
-2.4367e-08
0.121157
-5.0241e-06
7.62101e-09
0.121157
5.5855e-07
3.69466e-08
0.121154
5.92258e-06
5.29954e-08
0.12115
8.91593e-06
4.88878e-08
0.121146
8.43291e-06
2.56357e-08
0.121144
4.77544e-06
-8.01873e-09
0.121144
-6.01737e-07
-3.84435e-08
0.121146
-5.69069e-06
-5.36076e-08
-8.72886e-06
-4.77035e-08
0.119628
-1.1606e-05
-2.3242e-08
0.119631
-7.65384e-06
6.87591e-09
0.119632
-5.85204e-07
3.46492e-08
0.119631
6.71779e-06
5.00679e-08
0.119628
1.13079e-05
4.64339e-08
0.119625
1.14686e-05
2.45626e-08
0.119623
7.29859e-06
-7.28765e-09
0.119622
4.85471e-07
-3.62428e-08
0.119623
-6.41594e-06
-5.06956e-08
-1.10168e-05
-4.51822e-08
0.117263
-1.34032e-05
-2.12358e-08
0.117265
-9.94496e-06
6.2926e-09
0.117267
-2.4484e-06
3.17373e-08
0.117268
6.0161e-06
4.60219e-08
0.117267
1.20189e-05
4.27689e-08
0.117265
1.32913e-05
2.26262e-08
0.117263
9.52599e-06
-6.77001e-09
0.117261
2.28579e-06
-3.34312e-08
0.11726
-5.69412e-06
-4.66689e-08
-1.16466e-05
-4.14196e-08
0.113996
-1.37132e-05
-1.83039e-08
0.113997
-1.1358e-05
6.1794e-09
0.113999
-4.41028e-06
2.86282e-08
0.114001
4.26961e-06
4.12455e-08
0.114001
1.11641e-05
3.80928e-08
0.114001
1.36485e-05
1.97775e-08
0.114
1.09402e-05
-6.7579e-09
0.113998
4.20541e-06
-3.04563e-08
0.113996
-3.98171e-06
-4.1913e-08
-1.07639e-05
-3.66315e-08
0.109654
-1.23763e-05
-1.45782e-08
0.109654
-1.13528e-05
6.64655e-09
0.109655
-5.76654e-06
2.58374e-08
0.109657
2.0643e-06
3.6138e-08
0.109659
8.98682e-06
3.27013e-08
0.109661
1.23598e-05
1.60791e-08
0.109661
1.10144e-05
-7.30684e-09
0.109659
5.56956e-06
-2.77192e-08
0.109657
-1.86003e-06
-3.67549e-08
-8.63855e-06
-3.11099e-08
0.103789
-9.38699e-06
-1.03185e-08
0.103787
-9.44443e-06
7.54755e-09
0.103787
-5.74826e-06
2.31771e-08
0.103789
1.41685e-07
3.09172e-08
0.103792
5.92074e-06
2.68959e-08
0.103795
9.39815e-06
1.17843e-08
0.103797
9.27977e-06
-8.38643e-09
0.103797
5.64266e-06
-2.51155e-08
0.103795
-6.74196e-08
-3.13883e-08
-5.73528e-06
-2.51597e-08
0.0952431
-5.08752e-06
-5.89572e-09
0.0952389
-5.1997e-06
8.56453e-09
0.0952365
-3.36169e-06
2.06074e-08
0.095237
-4.08915e-07
2.52411e-08
0.0952402
2.75998e-06
2.08451e-08
0.0952445
5.04808e-06
7.2144e-09
0.0952484
5.41552e-06
-9.63372e-09
0.0952505
3.58772e-06
-2.2472e-08
0.0952501
2.72634e-07
-2.53287e-08
-3.02563e-06
-1.89438e-08
0.0798882
-2.20716e-09
0.079883
8.40279e-09
0.0798796
1.69089e-08
0.0798792
1.93962e-08
0.0798819
1.45681e-08
0.079887
2.9757e-09
0.0798924
-9.74872e-09
0.079896
-1.83988e-08
0.0798963
-1.87759e-08
-1.26848e-08
0.0798883
5.04827e-06
-2.6961e-09
0.0798831
5.19538e-06
7.81378e-09
0.0798797
3.39105e-06
1.63305e-08
0.0798792
4.60822e-07
1.90466e-08
0.0798819
-2.70097e-06
1.44865e-08
0.0798869
-5.00532e-06
3.35399e-09
0.0798923
-5.40705e-06
-8.99848e-09
0.079896
-3.62005e-06
-1.76246e-08
0.0798963
-3.2943e-07
-1.85042e-08
2.96737e-06
-1.28985e-08
0.0952432
9.31599e-06
-5.88527e-09
0.095239
9.44017e-06
7.8214e-09
0.0952365
5.81172e-06
1.92357e-08
0.095237
-3.84441e-08
2.38372e-08
0.0952402
-5.81684e-06
1.97054e-08
0.0952445
-9.33294e-06
6.9553e-09
0.0952484
-9.27652e-06
-8.75641e-09
0.0952504
-5.70251e-06
-2.08496e-08
0.0952501
-3.08608e-08
-2.38703e-08
5.63032e-06
-1.81151e-08
0.103789
1.23025e-05
-9.43333e-09
0.103787
1.13687e-05
6.86503e-09
0.103787
5.86516e-06
2.10071e-08
0.103789
-1.92658e-06
2.81071e-08
0.103792
-8.86323e-06
2.43453e-08
0.103795
-1.2296e-05
1.06296e-08
0.103797
-1.10316e-05
-7.58994e-09
0.103797
-5.66048e-06
-2.26335e-08
0.103795
1.73027e-06
-2.84779e-08
8.51131e-06
-2.28963e-08
0.109654
1.36555e-05
-1.27535e-08
0.109654
1.14009e-05
5.92925e-09
0.109655
4.53583e-06
2.26949e-08
0.109657
-4.1167e-06
3.17359e-08
0.109659
-1.10427e-05
2.86114e-08
0.109661
-1.36025e-05
1.40048e-08
0.109661
-1.09831e-05
-6.4956e-09
0.109659
-4.32053e-06
-2.43567e-08
0.109657
3.83698e-06
-3.22426e-08
1.06364e-05
-2.72889e-08
0.113995
1.33729e-05
-1.56281e-08
0.113997
1.00134e-05
5.29721e-09
0.113999
2.58678e-06
2.44258e-08
0.114001
-5.86795e-06
3.51574e-08
0.114001
-1.19179e-05
3.2476e-08
0.114001
-1.32725e-05
1.68737e-08
0.114
-9.59252e-06
-5.75771e-09
0.113998
-2.41227e-06
-2.5996e-08
0.113996
5.55278e-06
-3.57166e-08
1.15374e-05
-3.12624e-08
0.117263
1.16066e-05
-1.79002e-08
0.117265
7.73951e-06
5.0655e-09
0.117267
7.1962e-07
2.63822e-08
0.117268
-6.5928e-06
3.83205e-08
0.117267
-1.12399e-05
3.57798e-08
0.117265
-1.14795e-05
1.9092e-08
0.117263
-7.38043e-06
-5.44652e-09
0.117261
-6.07986e-07
-2.77594e-08
0.11726
6.29567e-06
-3.88916e-08
1.09393e-05
-3.4656e-08
0.119628
8.58668e-06
-1.94826e-08
0.11963
5.11299e-06
5.17774e-09
0.119632
-4.45676e-07
2.8108e-08
0.119631
-5.83486e-06
4.09725e-08
0.119629
-8.88618e-06
3.83516e-08
0.119626
-8.46833e-06
2.06346e-08
0.119623
-4.85927e-06
-5.51473e-09
0.119622
4.99714e-07
-2.94219e-08
0.119623
5.60555e-06
-4.15431e-08
8.6894e-06
-3.73005e-08
0.121154
4.59011e-06
-2.04175e-08
0.121157
2.51081e-06
5.44365e-09
0.121157
-5.91999e-07
2.94763e-08
0.121154
-3.46494e-06
4.28838e-08
0.121151
-4.95675e-06
4.00657e-08
0.121147
-4.51903e-06
2.15209e-08
0.121144
-2.38126e-06
-5.785e-09
0.121144
6.10751e-07
-3.07507e-08
0.121146
3.34051e-06
-4.34467e-08
4.86184e-06
-3.90673e-08
0.121892
1.84682e-08
-2.08202e-08
0.121894
2.14746e-08
5.69158e-09
0.121894
1.46141e-08
3.02424e-08
0.12189
1.77022e-10
4.38739e-08
0.121885
-1.37575e-08
4.0901e-08
0.121881
-2.06364e-08
2.18971e-08
0.121878
-1.88707e-08
-5.99543e-09
0.121879
-1.08888e-08
-3.14811e-08
0.121882
-3.61598e-10
-4.44306e-08
9.82567e-09
-3.99312e-08
0.121892
-4.55961e-06
-2.08221e-08
0.121894
-2.47182e-06
5.69562e-09
0.121894
6.21095e-07
3.02414e-08
0.12189
3.46897e-06
4.38764e-08
0.121885
4.93533e-06
4.09041e-08
0.121881
4.48396e-06
2.18994e-08
0.121878
2.3475e-06
-5.99592e-09
0.121879
-6.32233e-07
-3.14831e-08
0.121882
-3.34474e-06
-4.44317e-08
-4.84842e-06
-3.99334e-08
0.121154
-8.57205e-06
-2.04247e-08
0.121157
-5.08387e-06
5.45057e-09
0.121157
4.74354e-07
2.94786e-08
0.121154
5.84797e-06
4.28918e-08
0.121151
8.87983e-06
4.00739e-08
0.121147
8.44856e-06
2.15255e-08
0.121144
4.83533e-06
-5.78025e-09
0.121144
-5.20492e-07
-3.07507e-08
0.121146
-5.61838e-06
-4.34507e-08
-8.69122e-06
-3.90739e-08
0.119628
-1.16101e-05
-1.94953e-08
0.11963
-7.72226e-06
5.16954e-09
0.119632
-6.92121e-07
2.81032e-08
0.119631
6.61577e-06
4.0983e-08
0.119629
1.12505e-05
3.83641e-08
0.119625
1.14772e-05
2.06425e-08
0.119623
7.36791e-06
-5.49727e-09
0.119622
5.88484e-07
-2.94214e-08
0.119623
-6.31763e-06
-4.15476e-08
-1.09578e-05
-3.73097e-08
0.117263
-1.33912e-05
-1.79187e-08
0.117265
-1.00073e-05
5.05151e-09
0.117267
-2.56208e-06
2.63564e-08
0.117268
5.89744e-06
3.83253e-08
0.117267
1.19415e-05
3.5795e-08
0.117265
1.32845e-05
1.9103e-08
0.117263
9.59022e-06
-5.42788e-09
0.117261
2.39534e-06
-2.77529e-08
0.11726
-5.58036e-06
-3.88925e-08
-1.15682e-05
-3.46663e-08
0.113995
-1.3683e-05
-1.56522e-08
0.113997
-1.14038e-05
5.28452e-09
0.113999
-4.51587e-06
2.44653e-08
0.114001
4.14776e-06
3.51525e-08
0.114001
1.10731e-05
3.24912e-08
0.114001
1.36236e-05
1.6888e-08
0.114
1.09886e-05
-5.7355e-09
0.113998
4.30759e-06
-2.59833e-08
0.113996
-3.86527e-06
-3.57112e-08
-1.06729e-05
-3.12724e-08
0.109654
-1.23327e-05
-1.27809e-08
0.109654
-1.13774e-05
5.91056e-09
0.109655
-5.85102e-06
2.27427e-08
0.109657
1.95452e-06
3.17295e-08
0.109659
8.89404e-06
2.86233e-08
0.109661
1.23202e-05
1.40191e-08
0.109661
1.10417e-05
-6.46854e-09
0.109659
5.65211e-06
-2.43437e-08
0.109657
-1.75503e-06
-3.22254e-08
-8.54659e-06
-2.72974e-08
0.103789
-9.34182e-06
-9.45887e-09
0.103787
-9.45022e-06
6.84225e-09
0.103787
-5.80317e-06
2.1019e-08
0.103789
5.9568e-08
2.80976e-08
0.103792
5.84223e-06
2.43508e-08
0.103795
9.35448e-06
1.06497e-08
0.103797
9.28711e-06
-7.5524e-09
0.103797
5.69776e-06
-2.26238e-08
0.103795
1.22335e-08
-2.84528e-08
-5.6583e-06
-2.29026e-08
0.0952432
-5.06186e-06
-5.91047e-09
0.0952389
-5.20043e-06
7.80129e-09
0.0952365
-3.38653e-06
1.92611e-08
0.095237
-4.49623e-07
2.38282e-08
0.0952402
2.71529e-06
1.97029e-08
0.0952445
5.01808e-06
6.97091e-09
0.0952484
5.41342e-06
-8.71526e-09
0.0952505
3.61666e-06
-2.083e-08
0.0952501
3.17843e-07
-2.38727e-08
-2.98287e-06
-1.81213e-08
0.0798882
-2.72011e-09
0.079883
7.80365e-09
0.0798797
1.63571e-08
0.0798792
1.90947e-08
0.0798819
1.44757e-08
0.0798869
3.36997e-09
0.0798924
-8.9547e-09
0.079896
-1.76084e-08
0.0798963
-1.85102e-08
-1.29056e-08
0.0798883
5.03305e-06
-1.73924e-09
0.0798831
5.19819e-06
4.453e-09
0.0798797
3.40962e-06
9.47367e-09
0.0798792
4.89079e-07
1.10703e-08
0.0798819
-2.67141e-06
8.48604e-09
0.0798869
-4.98702e-06
2.0697e-09
0.0798923
-5.40812e-06
-5.1326e-09
0.0798959
-3.64168e-06
-1.01427e-08
0.0798963
-3.609e-07
-1.07694e-08
2.93934e-06
-7.60443e-09
0.0952432
9.28856e-06
-3.49657e-09
0.095239
9.44763e-06
4.50474e-09
0.0952366
5.8515e-06
1.11744e-08
0.095237
1.83085e-08
1.38498e-08
0.0952401
-5.76474e-06
1.14344e-08
0.0952445
-9.30645e-06
4.06372e-09
0.0952483
-9.28517e-06
-5.04788e-09
0.0952504
-5.74279e-06
-1.20263e-08
0.0952501
-8.60731e-08
-1.38272e-08
5.57936e-06
-1.05469e-08
0.103789
1.22761e-05
-5.38091e-09
0.103787
1.13888e-05
4.00775e-09
0.103787
5.92465e-06
1.21534e-08
0.103789
-1.85098e-06
1.61512e-08
0.103792
-8.80149e-06
1.39401e-08
0.103795
-1.22723e-05
6.02892e-09
0.103797
-1.10537e-05
-4.43105e-09
0.103797
-5.71904e-06
-1.30324e-08
0.103795
1.6578e-06
-1.63373e-08
8.45019e-06
-1.31293e-08
0.109654
1.36375e-05
-7.1262e-09
0.109654
1.14346e-05
3.50126e-09
0.109655
4.6088e-06
1.30197e-08
0.109657
-4.03304e-06
1.80428e-08
0.109659
-1.09819e-05
1.61806e-08
0.109661
-1.3588e-05
7.82137e-09
0.109661
-1.10187e-05
-3.82724e-09
0.109659
-4.39178e-06
-1.38886e-08
0.109657
3.75696e-06
-1.83215e-08
1.05756e-05
-1.54414e-08
0.113995
1.3366e-05
-8.62943e-09
0.113997
1.00571e-05
3.13882e-09
0.113999
2.66444e-06
1.38967e-08
0.114001
-5.7867e-06
1.97839e-08
0.114001
-1.18658e-05
1.81682e-08
0.114001
-1.32693e-05
9.32244e-09
0.114
-9.63763e-06
-3.40022e-09
0.113998
-2.4879e-06
-1.47206e-08
0.113996
5.47491e-06
-2.0096e-08
1.14847e-05
-1.74913e-08
0.117263
1.16097e-05
-9.81641e-09
0.117265
7.78633e-06
2.97187e-09
0.117267
7.9209e-07
1.47943e-08
0.117268
-6.5231e-06
2.13619e-08
0.117267
-1.12009e-05
1.98436e-08
0.117265
-1.14857e-05
1.04867e-08
0.117263
-7.428e-06
-3.18988e-09
0.117261
-6.78373e-07
-1.55867e-08
0.11726
6.22857e-06
-2.168e-08
1.08993e-05
-1.92186e-08
0.119628
8.5949e-06
-1.06448e-08
0.11963
5.15333e-06
2.97795e-09
0.119632
-3.88967e-07
1.56228e-08
0.119631
-5.78392e-06
2.26655e-08
0.119629
-8.86137e-06
2.11355e-08
0.119626
-8.47871e-06
1.12872e-08
0.119623
-4.89985e-06
-3.17484e-09
0.119622
4.44621e-07
-1.63719e-08
0.119623
5.55626e-06
-2.29841e-08
8.66362e-06
-2.05514e-08
0.121154
4.59667e-06
-1.1132e-08
0.121157
2.53443e-06
3.08841e-09
0.121157
-5.60646e-07
1.62681e-08
0.121154
-3.43794e-06
2.35947e-08
0.121151
-4.94495e-06
2.19919e-08
0.121147
-4.5267e-06
1.1759e-08
0.121144
-2.40492e-06
-3.26804e-09
0.121144
5.802e-07
-1.69953e-08
0.121146
3.31428e-06
-2.3913e-08
4.84945e-06
-2.14357e-08
0.121892
1.83997e-08
-1.13437e-08
0.121894
2.15147e-08
3.1935e-09
0.121894
1.45596e-08
1.66299e-08
0.12189
3.78712e-10
2.40736e-08
0.121885
-1.36096e-08
2.24078e-08
0.121881
-2.06261e-08
1.19614e-08
0.121878
-1.89566e-08
-3.34465e-09
0.121879
-1.09854e-08
-1.73374e-08
0.121882
-5.30324e-10
-2.43907e-08
9.69284e-09
-2.18669e-08
0.121892
-4.56633e-06
-1.13445e-08
0.121894
-2.49538e-06
3.18944e-09
0.121894
5.89577e-07
1.66322e-08
0.12189
3.44233e-06
2.40739e-08
0.121885
4.92381e-06
2.24094e-08
0.121881
4.49166e-06
1.19628e-08
0.121878
2.37104e-06
-3.34746e-09
0.121879
-6.01823e-07
-1.73389e-08
0.121882
-3.3188e-06
-2.43915e-08
-4.83628e-06
-2.18681e-08
0.121154
-8.58046e-06
-1.11347e-08
0.121157
-5.12423e-06
3.08434e-09
0.121157
4.17352e-07
1.62738e-08
0.121155
5.7973e-06
2.35953e-08
0.121151
8.85525e-06
2.19964e-08
0.121147
8.45902e-06
1.17623e-08
0.121144
4.87587e-06
-3.26181e-09
0.121144
-4.6541e-07
-1.6995e-08
0.121146
-5.56928e-06
-2.39146e-08
-8.66564e-06
-2.14393e-08
0.119628
-1.16134e-05
-1.06505e-08
0.11963
-7.76921e-06
2.98978e-09
0.119632
-7.65045e-07
1.56326e-08
0.119631
6.5462e-06
2.26653e-08
0.119629
1.12117e-05
2.11425e-08
0.119626
1.14835e-05
1.12922e-08
0.119623
7.41557e-06
-3.16547e-09
0.119622
6.59007e-07
-1.63691e-08
0.119623
-6.2506e-06
-2.29855e-08
-1.0918e-05
-2.05567e-08
0.117263
-1.33845e-05
-9.82521e-09
0.117265
-1.00512e-05
2.97843e-09
0.117267
-2.64039e-06
1.48162e-08
0.117268
5.81619e-06
2.13645e-08
0.117267
1.18896e-05
1.98512e-08
0.117265
1.32814e-05
1.04935e-08
0.117263
9.63552e-06
-3.17731e-09
0.117261
2.47122e-06
-1.55804e-08
0.11726
-5.50245e-06
-2.16786e-08
-1.15156e-05
-1.9225e-08
0.113995
-1.36652e-05
-8.64184e-09
0.113997
-1.14377e-05
3.13509e-09
0.113999
-4.58938e-06
1.38403e-08
0.114001
4.06396e-06
1.9788e-08
0.114001
1.10124e-05
1.81746e-08
0.114001
1.36092e-05
9.3312e-09
0.114
1.10244e-05
-3.38405e-09
0.113998
4.37919e-06
-1.47221e-08
0.113996
-3.78512e-06
-2.00916e-08
-1.06121e-05
-1.74978e-08
0.109654
-1.23065e-05
-7.14106e-09
0.109654
-1.13977e-05
3.49571e-09
0.109655
-5.91094e-06
1.29767e-08
0.109657
1.87869e-06
1.80495e-08
0.109659
8.83233e-06
1.61852e-08
0.109661
1.22966e-05
7.83097e-09
0.109661
1.1064e-05
-3.80341e-09
0.109659
5.71101e-06
-1.3891e-08
0.109657
-1.68239e-06
-1.83142e-08
-8.48544e-06
-1.54473e-08
0.103789
-9.31447e-06
-5.39592e-09
0.103787
-9.45784e-06
4.00404e-09
0.103787
-5.84331e-06
1.21138e-08
0.103789
2.569e-09
1.61489e-08
0.103792
5.79013e-06
1.39422e-08
0.103795
9.32804e-06
6.03882e-09
0.103797
9.29593e-06
-4.40677e-09
0.103797
5.73832e-06
-1.30217e-08
0.103795
6.76253e-08
-1.63275e-08
-5.60728e-06
-1.31344e-08
0.0952432
-5.04668e-06
-3.51202e-09
0.095239
-5.20333e-06
4.50371e-09
0.0952365
-3.40529e-06
1.1132e-08
0.095237
-4.78114e-07
1.38542e-08
0.0952401
2.68572e-06
1.14333e-08
0.0952445
4.99979e-06
4.06974e-09
0.0952483
5.4146e-06
-5.02001e-09
0.0952504
3.63846e-06
-1.20141e-08
0.0952501
3.4941e-07
-1.38362e-08
-2.95481e-06
-1.05522e-08
0.0798883
-1.74867e-09
0.0798831
4.45769e-09
0.0798797
9.43168e-09
0.0798792
1.10884e-08
0.0798819
8.48219e-09
0.0798869
2.0788e-09
0.0798923
-5.10063e-09
0.079896
-1.01328e-08
0.0798963
-1.07831e-08
-7.60892e-09
0.0798883
5.02655e-06
1.28534e-13
0.0798831
5.19993e-06
9.66962e-11
0.0798797
3.41835e-06
1.66439e-10
0.0798792
5.01772e-07
1.75201e-10
0.0798819
-2.65837e-06
1.20128e-10
0.0798869
-4.9792e-06
9.80119e-12
0.0798923
-5.40914e-06
-1.01708e-10
0.0798959
-3.65168e-06
-1.73949e-10
0.0798963
-3.75041e-07
-1.71701e-10
2.92698e-06
-1.06338e-10
0.0952432
9.27695e-06
-3.1179e-11
0.095239
9.45194e-06
9.81558e-11
0.0952366
5.87018e-06
1.98286e-10
0.095237
4.38327e-08
2.24914e-10
0.0952401
-5.74184e-06
1.68903e-10
0.0952444
-9.29537e-06
3.9673e-11
0.0952483
-9.29008e-06
-1.05362e-10
0.0952504
-5.76144e-06
-2.08341e-10
0.0952501
-1.10877e-07
-2.23121e-10
5.55693e-06
-1.5489e-10
0.103789
1.22653e-05
-6.31898e-11
0.103787
1.13991e-05
9.16476e-11
0.103787
5.95233e-06
2.18131e-10
0.103789
-1.81719e-06
2.66655e-10
0.103792
-8.77459e-06
2.11455e-10
0.103795
-1.22628e-05
7.04417e-11
0.103797
-1.10649e-05
-9.9525e-11
0.103797
-5.74602e-06
-2.28852e-10
0.103795
1.62545e-06
-2.66945e-10
8.42352e-06
-1.9781e-10
0.109654
1.36307e-05
-9.15146e-11
0.109654
1.1451e-05
8.51006e-11
0.109655
4.64252e-06
2.34859e-10
0.109657
-3.9959e-06
2.99779e-10
0.109659
-1.09557e-05
2.48714e-10
0.109661
-1.35829e-05
9.81058e-11
0.109661
-1.1036e-05
-9.32394e-11
0.109659
-4.42427e-06
-2.46124e-10
0.109657
3.72144e-06
-3.00882e-10
1.05494e-05
-2.3549e-10
0.113995
1.33643e-05
-1.14663e-10
0.113997
1.00779e-05
8.08738e-11
0.113999
2.70019e-06
2.50883e-10
0.114001
-5.75088e-06
3.28866e-10
0.114001
-1.18437e-05
2.80679e-10
0.114001
-1.32693e-05
1.20795e-10
0.114
-9.65916e-06
-8.88657e-11
0.113998
-2.52212e-06
-2.61921e-10
0.113996
5.44055e-06
-3.30491e-10
1.14622e-05
-2.67964e-10
0.117263
1.16124e-05
-1.32018e-10
0.117265
7.80825e-06
7.93889e-11
0.117267
8.25229e-07
2.6615e-10
0.117268
-6.49258e-06
3.5441e-10
0.117267
-1.11847e-05
3.06532e-10
0.117265
-1.14898e-05
1.37967e-10
0.117263
-7.45039e-06
-8.7418e-11
0.117261
-7.10064e-07
-2.77311e-10
0.11726
6.19915e-06
-3.5591e-10
1.08826e-05
-2.94446e-10
0.119628
8.59957e-06
-1.43796e-10
0.11963
5.17201e-06
8.04332e-11
0.119632
-3.63089e-07
2.79565e-10
0.119631
-5.76177e-06
3.74174e-10
0.119629
-8.85125e-06
3.25707e-10
0.119626
-8.48439e-06
1.49288e-10
0.119623
-4.9188e-06
-8.83968e-11
0.119622
4.19917e-07
-2.90159e-10
0.119623
5.5348e-06
-3.75993e-10
8.65307e-06
-3.14172e-10
0.121154
4.60016e-06
-1.50461e-10
0.121157
2.54528e-06
8.24831e-11
0.121157
-5.46221e-07
2.89357e-10
0.121154
-3.42627e-06
3.87694e-10
0.121151
-4.94024e-06
3.37918e-10
0.121147
-4.53069e-06
1.55462e-10
0.121144
-2.41594e-06
-9.05109e-11
0.121144
5.66539e-07
-2.99828e-10
0.121146
3.30292e-06
-3.89778e-10
4.84448e-06
-3.26835e-10
0.121892
1.83703e-08
-1.53306e-10
0.121894
2.14669e-08
8.4206e-11
0.121894
1.49031e-08
2.94536e-10
0.12189
4.2152e-10
3.94468e-10
0.121885
-1.35382e-08
3.43647e-10
0.121881
-2.06106e-08
1.57943e-10
0.121878
-1.90387e-08
-9.18655e-11
0.121879
-1.10349e-08
-3.04949e-10
0.121882
-5.78695e-10
-3.96669e-10
9.65353e-09
-3.32867e-10
0.121892
-4.56988e-06
-1.53295e-10
0.121894
-2.50637e-06
8.41191e-11
0.121894
5.75825e-07
2.94486e-10
0.12189
3.43074e-06
3.9448e-10
0.121885
4.91923e-06
3.43651e-10
0.121881
4.4957e-06
1.57942e-10
0.121878
2.3819e-06
-9.18883e-11
0.121879
-5.8824e-07
-3.04945e-10
0.121882
-3.30752e-06
-3.96664e-10
-4.83139e-06
-3.32885e-10
0.121154
-8.58521e-06
-1.50436e-10
0.121157
-5.1431e-06
8.2599e-11
0.121157
3.92105e-07
2.89217e-10
0.121155
5.77517e-06
3.87704e-10
0.121151
8.84526e-06
3.37927e-10
0.121147
8.46476e-06
1.55421e-10
0.121144
4.89472e-06
-9.03168e-11
0.121144
-4.4073e-07
-2.99726e-10
0.121146
-5.54785e-06
-3.89741e-10
-8.65515e-06
-3.26882e-10
0.119628
-1.16162e-05
-1.43785e-10
0.11963
-7.79134e-06
8.05771e-11
0.119632
-7.97591e-07
2.79549e-10
0.119631
6.51564e-06
3.74132e-10
0.119629
1.11955e-05
3.25704e-10
0.119626
1.14877e-05
1.49166e-10
0.119623
7.4379e-06
-8.81784e-11
0.119622
6.90738e-07
-2.89947e-10
0.119623
-6.22117e-06
-3.75887e-10
-1.09013e-05
-3.14222e-10
0.117263
-1.33829e-05
-1.31985e-10
0.117265
-1.00722e-05
7.98084e-11
0.117267
-2.67553e-06
2.66573e-10
0.117268
5.78028e-06
3.54298e-10
0.117267
1.18675e-05
3.06459e-10
0.117265
1.32815e-05
1.37752e-10
0.117263
9.65704e-06
-8.72083e-11
0.117261
2.50554e-06
-2.76945e-10
0.11726
-5.46802e-06
-3.55677e-10
-1.14932e-05
-2.94486e-10
0.113995
-1.36585e-05
-1.14593e-10
0.113997
-1.14543e-05
8.12222e-11
0.113999
-4.62269e-06
2.51912e-10
0.114001
4.02672e-06
3.29132e-10
0.114001
1.09863e-05
2.80439e-10
0.114001
1.36042e-05
1.20483e-10
0.114
1.10418e-05
-8.8642e-11
0.113998
4.41178e-06
-2.61725e-10
0.113996
-3.7495e-06
-3.30135e-10
-1.05859e-05
-2.67987e-10
0.109654
-1.22958e-05
-9.13221e-11
0.109654
-1.14082e-05
8.58561e-11
0.109655
-5.93837e-06
2.36521e-10
0.109657
1.84481e-06
3.00015e-10
0.109659
8.80544e-06
2.48307e-10
0.109661
1.22872e-05
9.77254e-11
0.109661
1.10753e-05
-9.27679e-11
0.109659
5.73808e-06
-2.45893e-10
0.109657
-1.64992e-06
-3.00404e-10
-8.45876e-06
-2.3552e-10
0.103789
-9.30291e-06
-6.28174e-11
0.103787
-9.4623e-06
9.28781e-11
0.103787
-5.86182e-06
2.20112e-10
0.103789
-2.30422e-08
2.66814e-10
0.103792
5.76723e-06
2.10857e-10
0.103795
9.31701e-06
6.99172e-11
0.103797
9.30088e-06
-9.90336e-11
0.103797
5.75706e-06
-2.28379e-10
0.103795
9.254e-08
-2.66283e-10
-5.58484e-06
-1.97885e-10
0.0952432
-5.04021e-06
-3.03686e-11
0.095239
-5.20515e-06
9.99894e-11
0.0952365
-3.41394e-06
2.00698e-10
0.095237
-4.90845e-07
2.25213e-10
0.0952401
2.67267e-06
1.68081e-10
0.0952445
4.992e-06
3.90866e-11
0.0952483
5.41564e-06
-1.0469e-10
0.0952504
3.64852e-06
-2.07744e-10
0.0952502
3.63616e-07
-2.22815e-10
-2.94245e-06
-1.55111e-10
0.0798883
7.80734e-13
0.0798831
9.92779e-11
0.0798797
1.6924e-10
0.0798792
1.75573e-10
0.0798819
1.1914e-10
0.0798869
9.34657e-12
0.0798923
-1.00812e-10
0.0798959
-1.73387e-10
0.0798963
-1.71545e-10
-1.06766e-10
0.0798883
5.02651e-06
1.74105e-09
0.0798831
5.20001e-06
-4.27858e-09
0.0798797
3.41853e-06