/*--------------------------------*- C++ -*----------------------------------*\
| =========                 |                                                 |
| \\      /  F ield         | OpenFOAM: The Open Source CFD Toolbox           |
|  \\    /   O peration     | Version:  2.3.0                                 |
|   \\  /    A nd           | Web:      www.OpenFOAM.org                      |
|    \\/     M anipulation  |                                                 |
\*---------------------------------------------------------------------------*/
FoamFile
{
    version     2.0;
    format      ascii;
    class       volSymmTensorField;
    location    "400";
    object      R;
}
// * * * * * * * * * * * * * * * * * * * * * * * * * * * * * * * * * * * * * //

dimensions      [0 2 -2 0 0 0 0];

internalField   nonuniform List<symmTensor> 
1800
(
(0.00641077 -0.00921208 -6.56366e-10 0.00641067 3.29762e-11 0.00641072)
(0.00640976 -0.00921082 -6.55141e-10 0.00640966 -1.67375e-10 0.00640971)
(0.00640875 -0.00920965 -6.52048e-10 0.00640869 -3.16916e-10 0.00640872)
(0.0064081 -0.00920896 -6.47665e-10 0.00640809 -3.54984e-10 0.00640809)
(0.00640804 -0.00920904 6.55258e-10 0.0064081 -2.69536e-10 0.00640807)
(0.00640861 -0.00920984 6.57808e-10 0.00640871 -5.68911e-11 0.00640866)
(0.00640961 -0.00921107 6.56243e-10 0.00640971 1.93717e-10 0.00640966)
(0.00641065 -0.00921225 6.51304e-10 0.00641071 3.5678e-10 0.00641068)
(0.00641132 -0.00921295 6.46189e-10 0.00641133 3.53846e-10 0.00641133)
(0.00641138 -0.00921288 -6.25926e-12 0.00641132 2.29119e-10 0.00641135)
(0.0056799 -0.00263697 -1.38335e-09 0.00567973 1.80147e-10 0.00567981)
(0.00567828 -0.00263655 -1.9057e-11 0.00567812 -2.28548e-11 0.00567819)
(0.0056752 -0.00263496 -1.06346e-11 0.00567512 -2.05563e-10 0.00567515)
(0.00567184 -0.0026328 1.66883e-12 0.00567187 -3.34948e-10 0.00567185)
(0.00566942 -0.00263086 1.48876e-11 0.00566954 -3.18638e-10 0.00566948)
(0.00566879 -0.0026298 1.38184e-09 0.00566895 -1.97235e-10 0.00566887)
(0.00567022 -0.00263004 1.38043e-09 0.00567036 6.87954e-12 0.00567029)
(0.00567322 -0.00263149 9.76414e-12 0.00567329 2.15254e-10 0.00567326)
(0.00567669 -0.00263372 -5.409e-12 0.00567667 3.54655e-10 0.00567668)
(0.00567925 -0.00263581 -1.64164e-11 0.00567914 3.22159e-10 0.0056792)
(0.00478747 -0.00217407 -1.9002e-09 0.00478732 2.94669e-10 0.00478739)
(0.00478539 -0.00217345 -1.89812e-09 0.00478529 -1.49495e-11 0.00478534)
(0.00478189 -0.00217173 -2.35567e-11 0.00478189 -3.07991e-10 0.00478189)
(0.00477823 -0.00216935 -1.48127e-12 0.00477833 -5.13869e-10 0.00477828)
(0.00477577 -0.00216713 1.87869e-09 0.00477592 -4.79843e-10 0.00477585)
(0.00477547 -0.00216608 4.0467e-11 0.00477562 -2.93294e-10 0.00477555)
(0.00477749 -0.00216665 1.89644e-09 0.00477759 4.58849e-12 0.00477754)
(0.00478106 -0.0021685 2.32065e-11 0.00478106 3.012e-10 0.00478106)
(0.00478478 -0.00217095 -3.30274e-12 0.00478469 5.25313e-10 0.00478473)
(0.00478723 -0.00217306 -1.88823e-09 0.00478709 4.91954e-10 0.00478715)
(0.00402472 -0.001814 -5.44062e-11 0.00402463 3.12991e-10 0.00402467)
(0.00402229 -0.00181315 -5.55555e-11 0.00402229 -7.48832e-11 0.00402229)
(0.00401865 -0.00181105 -3.78664e-11 0.00401874 -4.28339e-10 0.0040187)
(0.00401516 -0.00180837 -5.64035e-12 0.0040153 -6.1007e-10 0.00401523)
(0.00401312 -0.0018061 3.0961e-11 0.00401325 -5.5875e-10 0.00401319)
(0.00401332 -0.00180539 5.74014e-11 0.00401341 -3.02331e-10 0.00401337)
(0.00401573 -0.00180621 6.05317e-11 0.00401573 6.89332e-11 0.00401573)
(0.00401941 -0.00180836 3.78509e-11 0.00401932 4.2392e-10 0.00401936)
(0.00402293 -0.00181104 4.50275e-13 0.00402279 6.08748e-10 0.00402286)
(0.00402497 -0.00181328 -3.43853e-11 0.00402484 5.71317e-10 0.00402491)
(0.00334481 -0.00147163 -7.08035e-11 0.00334482 2.60749e-10 0.00334481)
(0.00334223 -0.00147074 -7.41329e-11 0.00334233 -1.54685e-10 0.00334228)
(0.0033388 -0.00146838 -5.14017e-11 0.00333894 -5.06404e-10 0.00333887)
(0.00333581 -0.00146568 -9.15765e-12 0.00333592 -6.53725e-10 0.00333587)
(0.00333435 -0.00146379 3.86538e-11 0.00333442 -5.51226e-10 0.00333439)
(0.00333502 -0.00146328 7.35722e-11 0.00333501 -2.44438e-10 0.00333502)
(0.00333757 -0.00146431 7.93294e-11 0.00333747 1.52696e-10 0.00333752)
(0.00334101 -0.00146648 5.16187e-11 0.00334088 4.9216e-10 0.00334094)
(0.00334403 -0.00146919 3.7971e-12 0.00334392 6.46942e-10 0.00334397)
(0.00334552 -0.0014711 -4.23236e-11 0.00334545 5.6463e-10 0.00334548)
(0.0027464 -0.00113742 -8.57173e-11 0.00274654 1.69789e-10 0.00274647)
(0.00274391 -0.00113618 -9.03757e-11 0.00274408 -2.2091e-10 0.002744)
(0.00274097 -0.001134 -6.25692e-11 0.00274109 -5.2354e-10 0.00274103)
(0.00273865 -0.00113168 -1.11272e-11 0.00273869 -6.13257e-10 0.00273867)
(0.00273783 -0.00113014 4.64653e-11 0.00273779 -4.70081e-10 0.00273781)
(0.00273886 -0.00112972 8.82619e-11 0.00273874 -1.53211e-10 0.0027388)
(0.00274134 -0.00113091 9.51822e-11 0.00274117 2.17608e-10 0.00274125)
(0.0027443 -0.00113308 -2.4816e-08 0.00274416 4.95926e-10 0.00274423)
(0.00274664 -0.00113543 6.18628e-12 0.0027466 6.04015e-10 0.00274662)
(0.0027475 -0.00113701 -5.00196e-11 0.00274754 4.83561e-10 0.00274752)
(0.00225521 -0.000810168 -9.91421e-11 0.00225544 7.85665e-11 0.00225533)
(0.00225295 -0.000808775 -1.04218e-10 0.00225314 -2.4235e-10 0.00225305)
(0.0022506 -0.000807188 -7.12428e-11 0.00225068 -4.64792e-10 0.00225064)
(0.00224907 -0.000805355 -1.14446e-11 0.00224899 -4.99614e-10 0.00224903)
(0.0022489 -0.000804368 5.43841e-11 0.00224872 -3.46216e-10 0.00224881)
(0.00225018 -0.00080435 1.01467e-10 0.00224996 -6.54675e-11 0.00225007)
(0.00225242 -0.000805272 1.08741e-10 0.00225223 2.32422e-10 0.00225232)
(0.00225477 -0.000807287 7.1618e-11 0.0022547 4.44974e-10 0.00225473)
(0.00225635 -0.000808926 6.88272e-12 0.00225642 4.9422e-10 0.00225639)
(0.00225656 -0.000810174 -5.78e-11 0.00225675 3.58117e-10 0.00225666)
(0.0019078 -0.000488638 -1.11235e-10 0.00190809 1.86977e-11 0.00190794)
(0.00190578 -0.000487903 -1.16022e-10 0.00190598 -1.91641e-10 0.00190588)
(0.00190405 -0.000486763 -7.81416e-11 0.00190405 -3.23535e-10 0.00190405)
(0.00190324 -0.000485784 -1.0962e-11 0.00190305 -3.29372e-10 0.00190314)
(0.00190363 -0.000485163 6.20494e-11 0.00190334 -2.08409e-10 0.00190349)
(0.00190512 -0.00048532 1.13417e-10 0.00190481 -1.13085e-11 0.00190496)
(0.00190711 -0.000486263 1.20523e-10 0.00190691 1.88618e-10 0.00190701)
(0.00190885 -0.000487405 7.87732e-11 0.00190885 3.14841e-10 0.00190885)
(0.00190971 -0.000488407 6.61629e-12 0.0019099 3.26752e-10 0.00190982)
(0.00190935 -0.000488834 2.66286e-08 0.00190966 2.16493e-10 0.00190951)
(0.00173021 -0.0001645 -1.19548e-10 0.00173057 -1.2253e-13 0.00173039)
(0.00172836 -0.000164382 -1.24022e-10 0.00172856 -7.28267e-11 0.00172847)
(0.00172701 -0.000163855 -8.2815e-11 0.00172697 -1.17697e-10 0.00172699)
(0.00172667 -0.000163729 -1.05172e-11 0.00172639 -1.16259e-10 0.00172652)
(0.00172744 -0.00016335 6.74683e-11 0.00172704 -6.96485e-11 0.00172723)
(0.00172901 -0.000163382 1.21897e-10 0.00172867 2.21066e-12 0.00172885)
(0.00173084 -0.000163961 1.28743e-10 0.00173067 7.61823e-11 0.00173076)
(0.00173225 -0.00016426 8.34864e-11 0.00173229 1.16246e-10 0.00173227)
(0.00173266 -0.000164629 6.1503e-12 0.00173291 1.15679e-10 0.00173278)
(0.00173193 -0.000164551 -7.08491e-11 0.0017323 7.23995e-11 0.00173211)
(0.0017302 0.000164499 -1.19556e-10 0.00173056 8.4174e-13 0.00173039)
(0.00172836 0.000164381 -1.24037e-10 0.00172856 7.40995e-11 0.00172846)
(0.00172701 0.000163854 -8.28139e-11 0.00172696 1.17111e-10 0.00172699)
(0.00172666 0.000163728 -1.05142e-11 0.00172638 1.15832e-10 0.00172652)
(0.00172744 0.00016335 6.74675e-11 0.00172704 6.89314e-11 0.00172723)
(0.00172901 0.000163382 1.21899e-10 0.00172867 -2.5669e-12 0.00172885)
(0.00173085 0.000163962 1.28741e-10 0.00173068 -7.50781e-11 0.00173077)
(0.00173225 0.000164259 8.34921e-11 0.00173229 -1.16782e-10 0.00173227)
(0.00173266 0.00016463 6.16278e-12 0.00173292 -1.15144e-10 0.00173279)
(0.00173193 0.000164551 -7.08452e-11 0.0017323 -7.18084e-11 0.00173211)
(0.0019078 0.000488638 -1.11206e-10 0.00190809 -1.8219e-11 0.00190794)
(0.00190577 0.0004879 -1.16036e-10 0.00190597 1.95417e-10 0.00190587)
(0.00190403 0.000486756 -7.81858e-11 0.00190404 3.24316e-10 0.00190403)
(0.00190323 0.000485777 -1.09805e-11 0.00190303 3.29436e-10 0.00190313)
(0.00190362 0.000485156 6.20397e-11 0.00190333 2.07859e-10 0.00190348)
(0.00190513 0.000485324 1.13449e-10 0.00190482 1.08073e-11 0.00190497)
(0.00190711 0.000486263 1.20524e-10 0.00190692 -1.87244e-10 0.00190701)
(0.00190887 0.000487411 7.8764e-11 0.00190887 -3.15626e-10 0.00190887)
(0.00190973 0.000488413 6.64021e-12 0.00190992 -3.26636e-10 0.00190983)
(0.00190936 0.000488837 2.66288e-08 0.00190967 -2.16189e-10 0.00190952)
(0.00225521 0.000810172 -9.90661e-11 0.00225544 -7.81245e-11 0.00225533)
(0.00225294 0.000808766 -1.04224e-10 0.00225313 2.44548e-10 0.00225303)
(0.00225059 0.000807178 -7.13281e-11 0.00225067 4.63089e-10 0.00225063)
(0.00224905 0.000805346 -1.14826e-11 0.00224898 5.00135e-10 0.00224901)
(0.0022489 0.00080436 5.43574e-11 0.00224871 3.46075e-10 0.0022488)
(0.00225018 0.000804346 1.01502e-10 0.00224995 6.48453e-11 0.00225007)
(0.00225243 0.000805278 1.08732e-10 0.00225224 -2.32581e-10 0.00225233)
(0.00225479 0.000807297 7.16025e-11 0.00225471 -4.45432e-10 0.00225475)
(0.00225637 0.00080894 6.92913e-12 0.00225644 -4.94956e-10 0.00225641)
(0.00225657 0.000810179 -5.77745e-11 0.00225675 -3.58089e-10 0.00225667)
(0.0027464 0.00113742 -8.56285e-11 0.00274654 -1.69113e-10 0.00274647)
(0.0027439 0.00113618 -9.04336e-11 0.00274407 2.2157e-10 0.00274399)
(0.00274095 0.00113399 -6.26537e-11 0.00274107 5.20083e-10 0.00274101)
(0.00273863 0.00113166 -1.11227e-11 0.00273867 6.1322e-10 0.00273865)
(0.00273782 0.00112991 4.64181e-11 0.00273777 4.7015e-10 0.0027378)
(0.00273885 0.00112972 8.828e-11 0.00273873 1.52665e-10 0.00273879)
(0.00274135 0.00113091 9.51816e-11 0.00274118 -2.188e-10 0.00274125)
(0.00274432 0.00113309 6.27905e-11 0.00274418 -4.89795e-10 0.00274425)
(0.00274666 0.00113544 6.23067e-12 0.00274662 -6.04378e-10 0.00274664)
(0.00274751 0.00113702 -4.99662e-11 0.00274756 -4.83802e-10 0.00274753)
(0.00334481 0.00147163 -7.06967e-11 0.00334482 -2.60021e-10 0.00334481)
(0.00334221 0.00147073 -7.4226e-11 0.00334231 1.56267e-10 0.00334227)
(0.00333878 0.00146836 -5.1503e-11 0.00333892 5.13619e-10 0.00333885)
(0.00333577 0.00146566 -9.1271e-12 0.0033359 6.55439e-10 0.00333584)
(0.00333433 0.00146377 2.37876e-08 0.0033344 5.51129e-10 0.00333437)
(0.00333503 0.00146327 7.35669e-11 0.003335 2.4384e-10 0.00333501)
(0.00333758 0.00146432 7.94561e-11 0.00333748 -1.53843e-10 0.00333753)
(0.00334103 0.00146649 5.16228e-11 0.0033409 -4.87717e-10 0.00334096)
(0.00334405 0.0014692 3.71492e-12 0.00334394 -6.47452e-10 0.00334399)
(0.00334554 0.00147112 -4.22598e-11 0.00334547 -5.64896e-10 0.0033455)
(0.00402473 0.00181401 -5.42725e-11 0.00402464 -3.12212e-10 0.00402468)
(0.00402227 0.00181314 -5.54729e-11 0.00402227 7.71916e-11 0.00402227)
(0.00401863 0.00181103 -3.79499e-11 0.00401872 4.3838e-10 0.00401868)
(0.00401514 0.00180836 -5.79509e-12 0.00401528 6.11748e-10 0.00401521)
(0.0040131 0.00180627 3.0862e-11 0.00401323 5.58445e-10 0.00401317)
(0.00401331 0.00180537 5.7387e-11 0.0040134 3.01794e-10 0.00401336)
(0.00401573 0.0018062 6.06284e-11 0.00401573 -6.98156e-11 0.00401573)
(0.00401942 0.00180837 3.78484e-11 0.00401933 -4.27028e-10 0.00401937)
(0.00402295 0.00181105 4.02357e-13 0.00402281 -6.09867e-10 0.00402288)
(0.00402499 0.00181329 -3.42958e-11 0.00402485 -5.71381e-10 0.00402492)
(0.00478748 0.00217408 -1.90006e-09 0.00478732 -2.9391e-10 0.0047874)
(0.00478538 0.00217344 -1.89802e-09 0.00478528 1.63172e-11 0.00478533)
(0.00478187 0.00217173 -2.36627e-11 0.00478187 3.09758e-10 0.00478187)
(0.0047782 0.00216933 -1.65586e-12 0.0047783 5.1269e-10 0.00477825)
(0.00477574 0.00216711 1.87859e-09 0.0047759 4.79573e-10 0.00477583)
(0.00477546 0.00216608 1.8952e-09 0.00477561 2.92986e-10 0.00477554)
(0.0047775 0.00216665 4.07965e-11 0.00477759 -5.26959e-12 0.00477754)
(0.00478108 0.00216849 2.32048e-11 0.00478108 -3.03616e-10 0.00478107)
(0.0047848 0.00217096 -3.3034e-12 0.00478471 -5.24449e-10 0.00478475)
(0.00478725 0.00217308 -1.88815e-09 0.00478711 -4.91853e-10 0.00478717)
(0.0056799 0.00263698 -1.38323e-09 0.00567974 -1.79686e-10 0.00567982)
(0.00567827 0.00263656 -1.89918e-11 0.00567812 2.3237e-11 0.00567819)
(0.00567519 0.00263494 -1.37149e-09 0.00567511 2.05414e-10 0.00567514)
(0.00567183 0.00263279 1.53316e-12 0.00567186 3.34059e-10 0.00567184)
(0.0056694 0.00263084 1.48428e-11 0.00566952 3.18469e-10 0.00566946)
(0.00566878 0.00262981 1.38182e-09 0.00566895 1.97092e-10 0.00566887)
(0.00567022 0.00263003 1.38045e-09 0.00567036 -7.10077e-12 0.00567029)
(0.00567323 0.00263151 9.78737e-12 0.00567331 -2.15989e-10 0.00567327)
(0.0056767 0.00263372 -5.39257e-12 0.00567668 -3.53539e-10 0.00567669)
(0.00567927 0.00263582 -1.63534e-11 0.00567916 -3.21927e-10 0.00567921)
(0.00641076 0.00921206 -6.5631e-10 0.00641066 -3.41924e-11 0.00641071)
(0.00640976 0.00921083 -6.55119e-10 0.00640966 1.64799e-10 0.00640971)
(0.00640874 0.00920962 -6.52106e-10 0.00640868 3.14576e-10 0.00640871)
(0.00640809 0.00920894 -6.47725e-10 0.00640808 3.54977e-10 0.00640809)
(0.00640804 0.00920904 6.55243e-10 0.0064081 2.69949e-10 0.00640807)
(0.00640861 0.00920984 6.57802e-10 0.00640871 5.7573e-11 0.00640866)
(0.00640961 0.00921106 6.5625e-10 0.00640971 -1.93045e-10 0.00640966)
(0.00641065 0.00921226 6.51319e-10 0.00641072 -3.56514e-10 0.00641069)
(0.00641132 0.00921294 6.462e-10 0.00641133 -3.53696e-10 0.00641133)
(0.00641138 0.00921288 -6.22946e-12 0.00641132 -2.29276e-10 0.00641135)
(0.00641078 -0.00921208 -6.66338e-10 0.00641068 1.41485e-10 0.00641073)
(0.00640979 -0.00921086 -6.644e-10 0.00640969 -3.32621e-10 0.00640974)
(0.00640877 -0.00920966 -1.30686e-09 0.00640871 -7.12139e-10 0.00640874)
(0.00640811 -0.00920898 -6.46851e-10 0.0064081 -8.38258e-10 0.00640811)
(0.00640804 -0.00920904 6.62814e-10 0.00640809 -6.6522e-10 0.00640807)
(0.0064086 -0.00920982 6.69274e-10 0.0064087 -1.87956e-10 0.00640865)
(0.00640958 -0.00921103 6.66555e-10 0.00640969 3.85076e-10 0.00640963)
(0.00641063 -0.00921223 1.30524e-09 0.00641069 7.88942e-10 0.00641066)
(0.00641131 -0.00921294 6.43821e-10 0.00641132 8.34145e-10 0.00641131)
(0.00641138 -0.00921289 -1.38652e-11 0.00641132 5.85258e-10 0.00641135)
(0.00567989 -0.00263696 -1.41017e-09 0.00567973 3.89406e-10 0.00567981)
(0.00567832 -0.00263658 -1.40737e-09 0.00567817 1.14441e-11 0.00567824)
(0.00567527 -0.00263499 -1.38876e-09 0.00567519 -3.49424e-10 0.00567523)
(0.00567192 -0.00263283 4.11313e-13 0.00567194 -6.22161e-10 0.00567193)
(0.00566947 -0.00263089 1.39025e-09 0.00566959 -6.28844e-10 0.00566953)
(0.0056688 -0.00262983 1.41152e-09 0.00566896 -4.21212e-10 0.00566888)
(0.00567018 -0.00263001 1.40994e-09 0.00567032 -3.77142e-11 0.00567025)
(0.00567315 -0.00263146 1.38524e-09 0.00567323 3.72474e-10 0.00567319)
(0.00567661 -0.00263368 -7.83897e-12 0.0056766 6.74371e-10 0.00567661)
(0.0056792 -0.00263577 -3.47436e-11 0.00567909 6.34644e-10 0.00567915)
(0.00478749 -0.00217405 -1.94321e-09 0.00478733 6.04761e-10 0.00478741)
(0.00478545 -0.00217349 -1.94334e-09 0.00478535 5.57108e-11 0.0047854)
(0.00478197 -0.00217179 -5.63131e-11 0.00478196 -4.94899e-10 0.00478197)
(0.00477831 -0.00216942 1.849e-09 0.0047784 -9.16603e-10 0.00477836)
(0.00477581 -0.00216717 1.90277e-09 0.00477597 -9.03479e-10 0.00477589)
(0.00477547 -0.00216611 8.67981e-11 0.00477562 -6.05007e-10 0.00477555)
(0.00477744 -0.00216664 1.94601e-09 0.00477753 -7.47957e-11 0.00477749)
(0.00478098 -0.00216844 5.53429e-11 0.00478098 4.86625e-10 0.00478098)
(0.00478471 -0.00217088 -1.41847e-12 0.00478462 9.42747e-10 0.00478466)
(0.00478718 -0.00217302 -1.91485e-09 0.00478704 9.25378e-10 0.00478711)
(0.00402474 -0.00181399 -1.12243e-10 0.00402465 6.44245e-10 0.00402469)
(0.00402235 -0.00181317 -1.19196e-10 0.00402235 -3.36863e-11 0.00402235)
(0.00401874 -0.00181111 -8.60443e-11 0.00401883 -6.80859e-10 0.00401879)
(0.00401524 -0.00180844 -1.91313e-11 0.00401538 -1.06259e-09 0.00401531)
(0.00401316 -0.00180616 5.98954e-11 0.00401329 -1.03635e-09 0.00401323)
(0.0040133 -0.00180539 1.18589e-10 0.00401339 -6.27806e-10 0.00401335)
(0.00401567 -0.00180619 1.29291e-10 0.00401567 2.23202e-11 0.00401567)
(0.00401933 -0.0018083 8.58075e-11 0.00401924 6.66264e-10 0.00401928)
(0.00402285 -0.00181097 8.42489e-12 0.00402272 1.06469e-09 0.00402279)
(0.00402493 -0.00181322 -6.67434e-11 0.0040248 1.06049e-09 0.00402487)
(0.00334484 -0.00147165 -1.41566e-10 0.00334485 5.51797e-10 0.00334484)
(0.00334229 -0.00147079 -1.54013e-10 0.00334239 -1.71314e-10 0.00334235)
(0.00333889 -0.00146844 -1.1323e-10 0.00333903 -8.15086e-10 0.00333896)
(0.00333587 -0.00146573 -2.87503e-11 0.00333599 -1.13433e-09 0.00333593)
(0.00333438 -0.00146381 7.16148e-11 0.00333444 -1.01929e-09 0.00333441)
(0.00333499 -0.00146327 1.47529e-10 0.00333498 -5.24221e-10 0.00333499)
(0.00333751 -0.00146427 1.64565e-10 0.00333741 1.64609e-10 0.00333746)
(0.00334094 -0.00146662 1.13521e-10 0.0033408 7.86582e-10 0.00334087)
(0.00334397 -0.00146913 1.77814e-11 0.00334386 1.12631e-09 0.00334391)
(0.0033455 -0.00147108 -7.91181e-11 0.00334543 1.04507e-09 0.00334546)
(0.00274644 -0.00113744 -1.67527e-10 0.00274658 3.83877e-10 0.00274651)
(0.00274397 -0.00113623 2.47132e-08 0.00274415 -2.96333e-10 0.00274407)
(0.00274104 -0.00113405 -1.3541e-10 0.00274116 -8.58237e-10 0.00274109)
(0.00273869 -0.00113172 -3.49526e-11 0.00273874 -1.06793e-09 0.00273871)
(0.00273785 -0.00113015 8.344e-11 0.0027378 -8.72587e-10 0.00273783)
(0.00273882 -0.00112971 1.73009e-10 0.0027387 -3.54523e-10 0.00273877)
(0.00274126 -0.00113087 1.94026e-10 0.00274111 2.88475e-10 0.00274119)
(0.00274423 -0.00113303 -2.47417e-08 0.0027441 8.17204e-10 0.00274416)
(0.00274661 -0.00113539 2.46186e-11 0.00274655 1.05549e-09 0.00274657)
(0.00274749 -0.001137 -9.09168e-11 0.00274754 8.98088e-10 0.00274751)
(0.00225525 -0.000810189 -1.9078e-10 0.00225548 2.08238e-10 0.00225537)
(0.002253 -0.000808806 -2.0929e-10 0.0022532 -3.50426e-10 0.0022531)
(0.00225066 -0.000807227 -1.52752e-10 0.00225074 -7.6655e-10 0.0022507)
(0.0022491 -0.000805379 -3.79041e-11 0.00224903 -8.73119e-10 0.00224906)
(0.0022489 -0.000804372 9.56759e-11 0.00224872 -6.48266e-10 0.00224881)
(0.00225014 -0.000804325 1.95896e-10 0.00224992 -1.84934e-10 0.00225003)
(0.00225236 -0.000805238 2.19058e-10 0.00225218 3.41522e-10 0.00225227)
(0.00225472 -0.000807031 -2.55181e-08 0.00225464 7.39332e-10 0.00225468)
(0.00225632 -0.000808903 2.81327e-11 0.00225639 8.65221e-10 0.00225636)
(0.00225657 -0.000809953 -1.03008e-10 0.00225675 6.70373e-10 0.00225667)
(0.00190783 -0.000488658 -2.12017e-10 0.00190814 8.03581e-11 0.00190799)
(0.00190583 -0.000487927 -2.31238e-10 0.00190603 -2.88808e-10 0.00190593)
(0.00190409 -0.000486783 -1.66937e-10 0.00190409 -5.3977e-10 0.00190409)
(0.00190325 -0.000485794 -3.91079e-11 0.00190306 -5.78725e-10 0.00190315)
(0.00190361 -0.000485156 1.07913e-10 0.00190332 -3.94622e-10 0.00190347)
(0.00190508 -0.000485303 2.1708e-10 0.00190477 -6.59179e-11 0.00190492)
(0.00190706 -0.000486239 2.41169e-10 0.00190687 2.88407e-10 0.00190696)
(0.00190882 -0.000487384 1.68206e-10 0.00190882 5.26053e-10 0.00190882)
(0.00190973 -0.000488403 2.96075e-11 0.00190989 5.74576e-10 0.00190981)
(0.00190937 -0.000488841 2.65791e-08 0.00190968 4.09452e-10 0.00190953)
(0.00173025 -0.000164509 -2.26941e-10 0.00173062 1.72605e-11 0.00173044)
(0.00172841 -0.000164391 -2.46422e-10 0.00172861 -1.1272e-10 0.00172851)
(0.00172704 -0.00016386 -1.76672e-10 0.001727 -1.98298e-10 0.00172702)
(0.00172667 -0.000163729 -3.97001e-11 0.00172639 -2.05899e-10 0.00172653)
(0.00172741 -0.000163346 1.16797e-10 0.00172702 -1.33456e-10 0.00172721)
(0.00172897 -0.000163376 2.32285e-10 0.00172863 -1.19056e-11 0.00172881)
(0.0017308 -0.000163954 2.56778e-10 0.00173063 1.16538e-10 0.00173072)
(0.00173221 -0.000164253 1.78125e-10 0.00173226 1.95073e-10 0.00173223)
(0.00173266 -0.000164627 3.01619e-11 0.00173291 2.04538e-10 0.00173278)
(0.00173195 -0.000164788 -1.24172e-10 0.00173233 1.3831e-10 0.00173214)
(0.00173025 0.000164508 -2.26958e-10 0.00173061 -1.52439e-11 0.00173043)
(0.0017284 0.00016439 -2.46459e-10 0.0017286 1.12564e-10 0.00172851)
(0.00172704 0.000163862 -1.76694e-10 0.001727 1.9537e-10 0.00172702)
(0.00172666 0.000163728 -3.96998e-11 0.00172639 2.02143e-10 0.00172652)
(0.00172741 0.000163346 1.16815e-10 0.00172702 1.30391e-10 0.00172721)
(0.00172897 0.000163376 2.3231e-10 0.00172863 1.14766e-11 0.00172881)
(0.0017308 0.000163954 2.568e-10 0.00173063 -1.15202e-10 0.00173072)
(0.00173222 0.000164253 1.78137e-10 0.00173226 -1.92506e-10 0.00173224)
(0.00173266 0.000164629 3.01621e-11 0.00173292 -2.01675e-10 0.00173279)
(0.00173196 0.00016479 -1.24171e-10 0.00173234 -1.36235e-10 0.00173215)
(0.00190783 0.000488658 -2.12048e-10 0.00190814 -7.82726e-11 0.00190799)
(0.00190582 0.000487924 -2.31326e-10 0.00190602 2.91726e-10 0.00190592)
(0.00190407 0.000486776 -1.67015e-10 0.00190408 5.38815e-10 0.00190407)
(0.00190324 0.000485788 -3.91232e-11 0.00190305 5.75753e-10 0.00190314)
(0.00190361 0.000485152 1.07964e-10 0.00190332 3.9172e-10 0.00190347)
(0.00190508 0.000485303 2.17153e-10 0.00190477 6.49793e-11 0.00190492)
(0.00190707 0.000486242 2.41219e-10 0.00190687 -2.86567e-10 0.00190697)
(0.00190883 0.000487391 1.6824e-10 0.00190883 -5.24471e-10 0.00190883)
(0.00190974 0.00048841 2.96199e-11 0.00190991 -5.72568e-10 0.00190982)
(0.00190938 0.000488844 2.65793e-08 0.00190969 -4.07634e-10 0.00190954)
(0.00225525 0.000810193 -1.9077e-10 0.00225548 -2.05914e-10 0.00225537)
(0.002253 0.000808805 -2.09408e-10 0.00225319 3.54099e-10 0.00225309)
(0.00225064 0.000807213 -1.52918e-10 0.00225072 7.65224e-10 0.00225068)
(0.00224908 0.000805365 -3.796e-11 0.00224901 8.71375e-10 0.00224904)
(0.00224889 0.000804359 9.5729e-11 0.0022487 6.45933e-10 0.00224879)
(0.00225014 0.000804325 1.96017e-10 0.00224992 1.83283e-10 0.00225003)
(0.00225238 0.000805244 2.19132e-10 0.00225219 -3.40841e-10 0.00225228)
(0.00225474 0.000807263 1.53665e-10 0.00225466 -7.39147e-10 0.0022547)
(0.00225634 0.000808917 2.8164e-11 0.00225641 -8.64859e-10 0.00225638)
(0.00225658 0.000809962 -1.02978e-10 0.00225676 -6.6892e-10 0.00225667)
(0.00274644 0.00113744 -1.67498e-10 0.00274658 -3.81429e-10 0.00274651)
(0.00274397 0.00113623 2.4713e-08 0.00274414 2.98667e-10 0.00274406)
(0.00274102 0.00113404 -1.35618e-10 0.00274114 8.55188e-10 0.00274107)
(0.00273867 0.0011317 -3.49995e-11 0.00273872 1.06679e-09 0.00273869)
(0.00273783 0.00113014 8.34808e-11 0.00273779 8.71063e-10 0.00273781)
(0.00273882 0.0011297 1.73127e-10 0.0027387 3.52854e-10 0.00273876)
(0.00274129 0.00113087 1.94097e-10 0.00274112 -2.9021e-10 0.00274119)
(0.00274425 0.00113305 -2.4742e-08 0.00274412 -8.12641e-10 0.00274418)
(0.00274661 0.0011354 2.4689e-11 0.00274657 -1.05576e-09 0.00274659)
(0.00274751 0.00113701 -9.0833e-11 0.00274755 -8.97141e-10 0.00274753)
(0.00334484 0.00147165 -1.41513e-10 0.00334485 -5.49373e-10 0.00334484)
(0.00334228 0.00147078 -1.54255e-10 0.00334238 1.73835e-10 0.00334233)
(0.00333886 0.00146842 -1.1347e-10 0.003339 8.18622e-10 0.00333893)
(0.00333585 0.00146571 -2.87696e-11 0.00333597 1.13544e-09 0.00333591)
(0.00333436 0.0014638 2.38211e-08 0.00333442 1.01875e-09 0.00333439)
(0.00333499 0.00146326 1.47613e-10 0.00333498 5.22845e-10 0.00333499)
(0.00333752 0.00146428 1.64737e-10 0.00333742 -1.6685e-10 0.00333747)
(0.00334095 0.00146643 1.13564e-10 0.00334082 -7.85247e-10 0.00334088)
(0.00334399 0.00146915 1.77647e-11 0.00334388 -1.12818e-09 0.00334393)
(0.00334552 0.00147109 -7.89854e-11 0.00334545 -1.0447e-09 0.00334548)
(0.00402475 0.001814 -1.12169e-10 0.00402466 -6.42599e-10 0.0040247)
(0.00402234 0.00181317 -1.19345e-10 0.00402234 3.59081e-11 0.00402234)
(0.00401872 0.0018111 -8.62544e-11 0.00401881 6.84123e-10 0.00401877)
(0.00401521 0.00180842 -1.924e-11 0.00401535 1.06354e-09 0.00401528)
(0.00401314 0.00180614 5.9881e-11 0.00401327 1.0368e-09 0.00401321)
(0.0040133 0.00180538 1.18632e-10 0.00401339 6.27169e-10 0.00401335)
(0.00401567 0.00180616 1.29367e-10 0.00401567 -2.44577e-11 0.00401567)
(0.00401934 0.00180831 8.58173e-11 0.00401925 -6.71315e-10 0.00401929)
(0.00402287 0.00181099 8.49894e-12 0.00402274 -1.0675e-09 0.00402281)
(0.00402495 0.00181323 -6.65381e-11 0.00402482 -1.06049e-09 0.00402489)
(0.00478749 0.00217405 -1.94314e-09 0.00478733 -6.04342e-10 0.00478741)
(0.00478544 0.00217348 -1.94352e-09 0.00478534 -5.55605e-11 0.00478539)
(0.00478196 0.00217178 -5.65054e-11 0.00478195 4.93447e-10 0.00478196)
(0.00477829 0.0021694 1.84896e-09 0.00477838 9.13006e-10 0.00477834)
(0.00477579 0.00216715 1.90276e-09 0.00477595 9.04539e-10 0.00477587)
(0.00477545 0.0021661 1.94154e-09 0.00477561 6.0515e-10 0.00477553)
(0.00477744 0.00216664 9.03565e-11 0.00477753 7.29512e-11 0.00477749)
(0.004781 0.00216844 5.5345e-11 0.004781 -4.89514e-10 0.00478099)
(0.00478472 0.00217089 -1.30721e-12 0.00478463 -9.41499e-10 0.00478467)
(0.0047872 0.00217304 -1.91465e-09 0.00478706 -9.25334e-10 0.00478713)
(0.0056799 0.00263696 -1.41016e-09 0.00567973 -3.90202e-10 0.00567981)
(0.00567832 0.00263659 -1.4075e-09 0.00567816 -1.32208e-11 0.00567823)
(0.00567526 0.00263498 -1.38891e-09 0.00567518 3.4904e-10 0.00567521)
(0.0056719 0.00263283 4.3043e-13 0.00567193 6.2401e-10 0.00567191)
(0.00566945 0.00263089 1.39032e-09 0.00566957 6.30118e-10 0.00566951)
(0.00566879 0.00262982 1.41146e-09 0.00566895 4.21592e-10 0.00566887)
(0.00567018 0.00263002 1.4099e-09 0.00567032 3.67443e-11 0.00567025)
(0.00567316 0.00263147 2.61242e-11 0.00567323 -3.74354e-10 0.0056732)
(0.00567663 0.00263368 -7.71883e-12 0.00567661 -6.7229e-10 0.00567662)
(0.00567921 0.00263579 -3.46196e-11 0.0056791 -6.3421e-10 0.00567916)
(0.00641078 0.0092121 -6.6637e-10 0.00641068 -1.43134e-10 0.00641073)
(0.00640978 0.00921083 -1.31379e-09 0.00640968 3.32022e-10 0.00640973)
(0.00640876 0.00920965 -1.30685e-09 0.0064087 7.13683e-10 0.00640873)
(0.00640811 0.00920898 -6.46811e-10 0.0064081 8.40305e-10 0.00640811)
(0.00640804 0.00920904 6.62805e-10 0.0064081 6.65371e-10 0.00640807)
(0.0064086 0.00920982 6.69228e-10 0.0064087 1.88352e-10 0.00640865)
(0.00640959 0.00921105 6.66517e-10 0.00640969 -3.83445e-10 0.00640964)
(0.00641063 0.00921225 6.55914e-10 0.0064107 -7.87332e-10 0.00641067)
(0.00641132 0.00921294 6.43898e-10 0.00641132 -8.33572e-10 0.00641132)
(0.00641138 0.00921289 -1.38288e-11 0.00641132 -5.86531e-10 0.00641135)
(0.00641079 -0.00921209 -6.69395e-10 0.00641069 1.90512e-10 0.00641074)
(0.0064098 -0.00921086 -6.676e-10 0.0064097 -3.52288e-10 0.00640975)
(0.00640878 -0.00920968 -6.59753e-10 0.00640872 -7.89956e-10 0.00640875)
(0.00640812 -0.00920897 2.07901e-12 0.00640811 -9.46623e-10 0.00640811)
(0.00640804 -0.00920902 1.52109e-11 0.00640809 -7.57598e-10 0.00640807)
(0.00640859 -0.00920981 6.72012e-10 0.00640869 -2.32257e-10 0.00640864)
(0.00640958 -0.00921104 6.69534e-10 0.00640968 3.98615e-10 0.00640963)
(0.00641061 -0.00921221 6.58126e-10 0.00641068 8.57547e-10 0.00641065)
(0.0064113 -0.00921293 -4.95133e-12 0.00641131 9.40832e-10 0.00641131)
(0.00641138 -0.00921289 -6.64743e-10 0.00641132 6.8491e-10 0.00641135)
(0.00567988 -0.00263694 -5.31797e-11 0.00567972 3.57894e-10 0.0056798)
(0.00567834 -0.00263659 -1.41317e-09 0.00567819 4.31333e-11 0.00567826)
(0.00567532 -0.00263501 -1.39308e-09 0.00567524 -2.70322e-10 0.00567527)
(0.00567197 -0.00263287 -5.98373e-13 0.00567199 -5.18752e-10 0.00567198)
(0.00566951 -0.00263093 1.39289e-09 0.00566963 -5.45834e-10 0.00566957)
(0.00566881 -0.00262984 5.82437e-11 0.00566897 -3.85888e-10 0.00566889)
(0.00567016 -0.00263 5.68602e-11 0.0056703 -6.52147e-11 0.00567023)
(0.00567311 -0.00263144 1.38961e-09 0.00567318 2.89872e-10 0.00567315)
(0.00567657 -0.00263364 -6.09928e-12 0.00567655 5.74526e-10 0.00567656)
(0.00567917 -0.00263574 -1.39858e-09 0.00567906 5.51011e-10 0.00567911)
(0.00478748 -0.00217403 -8.41493e-11 0.00478732 5.23208e-10 0.0047874)
(0.00478548 -0.00217348 -8.60369e-11 0.00478538 1.0944e-10 0.00478543)
(0.00478203 -0.0021718 -5.98386e-11 0.00478202 -3.31527e-10 0.00478203)
(0.00477836 -0.00216945 1.84791e-09 0.00477846 -6.96512e-10 0.00477841)
(0.00477585 -0.00216722 4.89678e-11 0.00477601 -7.24029e-10 0.00477593)
(0.00477548 -0.00216614 8.99512e-11 0.00477563 -5.28315e-10 0.00477555)
(0.00477741 -0.00216663 9.39926e-11 0.00477751 -1.29334e-10 0.00477746)
(0.00478093 -0.00216841 5.88606e-11 0.00478094 3.30364e-10 0.00478093)
(0.00478465 -0.00217085 5.68383e-13 0.00478457 7.25576e-10 0.00478461)
(0.00478715 -0.00217299 -5.37775e-11 0.00478701 7.42392e-10 0.00478707)
(0.00402475 -0.00181398 -1.11586e-10 0.00402466 5.55276e-10 0.0040247)
(0.00402239 -0.0018132 -1.19259e-10 0.00402238 6.55736e-11 0.00402239)
(0.00401879 -0.00181115 -8.68542e-11 0.00401888 -4.30773e-10 0.00401884)
(0.00401529 -0.0018085 -2.02638e-11 0.00401543 -7.62315e-10 0.00401536)
(0.00401319 -0.00180619 5.88252e-11 0.00401332 -8.03245e-10 0.00401325)
(0.0040133 -0.0018054 1.17312e-10 0.00401339 -5.47258e-10 0.00401335)
(0.00401564 -0.00180616 1.28602e-10 0.00401564 -7.97633e-11 0.00401564)
(0.00401928 -0.00180826 8.67212e-11 0.00401918 4.16754e-10 0.00401923)
(0.0040228 -0.00181093 1.03429e-11 0.00402266 7.70167e-10 0.00402273)
(0.00402491 -0.00181319 -6.51785e-11 0.00402477 8.24174e-10 0.00402484)
(0.00334485 -0.00147165 -1.34665e-10 0.00334486 4.86953e-10 0.00334485)
(0.00334233 -0.00147061 -1.47803e-10 0.00334243 -2.58753e-11 0.00334239)
(0.00333894 -0.00146848 -1.1039e-10 0.00333908 -5.2205e-10 0.00333901)
(0.00333593 -0.00146577 -3.03087e-11 0.00333604 -7.99016e-10 0.00333598)
(0.0033344 -0.00146383 6.64355e-11 0.00333446 -7.79439e-10 0.00333443)
(0.00333499 -0.00146327 1.40024e-10 0.00333498 -4.69485e-10 0.00333499)
(0.00333748 -0.00146425 1.5756e-10 0.00333738 1.47383e-11 0.00333743)
(0.00334089 -0.00146659 1.10846e-10 0.00334076 4.90293e-10 0.00334082)
(0.00334393 -0.0014691 2.02701e-11 0.00334382 7.95979e-10 0.00334387)