/*--------------------------------*- C++ -*----------------------------------*\
| =========                 |                                                 |
| \\      /  F ield         | OpenFOAM: The Open Source CFD Toolbox           |
|  \\    /   O peration     | Version:  2.3.0                                 |
|   \\  /    A nd           | Web:      www.OpenFOAM.org                      |
|    \\/     M anipulation  |                                                 |
\*---------------------------------------------------------------------------*/
FoamFile
{
    version     2.0;
    format      ascii;
    class       volVectorField;
    location    "400";
    object      U;
}
// * * * * * * * * * * * * * * * * * * * * * * * * * * * * * * * * * * * * * //

dimensions      [0 1 -1 0 0 0 0];

internalField   nonuniform List<vector> 
1800
(
(0.763289 1.313e-06 4.45085e-10)
(0.763235 1.44664e-06 1.44184e-08)
(0.76319 1.04251e-06 2.4327e-08)
(0.763171 3.21259e-07 2.58083e-08)
(0.763184 -5.81984e-07 1.78708e-08)
(0.763225 -1.31393e-06 1.04967e-09)
(0.76328 -1.527e-06 -1.72593e-08)
(0.763328 -1.09605e-06 -2.74495e-08)
(0.763348 -2.27434e-07 -2.52576e-08)
(0.763332 6.84523e-07 -1.42844e-08)
(0.909988 3.24992e-06 -5.13622e-09)
(0.909943 3.17991e-06 1.60968e-08)
(0.909908 1.92549e-06 3.21814e-08)
(0.909898 -3.18253e-09 3.69374e-08)
(0.909919 -2.03919e-06 2.89079e-08)
(0.909959 -3.25079e-06 7.71127e-09)
(0.910002 -3.21842e-06 -1.81294e-08)
(0.910032 -1.95838e-06 -3.59541e-08)
(0.91004 2.99228e-08 -3.72863e-08)
(0.910025 2.08434e-06 -2.53522e-08)
(0.991628 4.72411e-06 -1.30758e-08)
(0.991602 4.54108e-06 1.56195e-08)
(0.991592 2.56126e-06 3.89549e-08)
(0.991603 -4.12429e-07 4.93977e-08)
(0.99163 -3.24795e-06 4.10817e-08)
(0.991661 -4.72547e-06 1.59059e-08)
(0.991686 -4.40606e-06 -1.70995e-08)
(0.991694 -2.47598e-06 -4.26524e-08)
(0.991684 3.14992e-07 -5.04098e-08)
(0.991659 3.10374e-06 -3.7918e-08)
(1.04765 5.64892e-06 -2.10133e-08)
(1.04764 4.89016e-06 1.55412e-08)
(1.04765 2.15608e-06 4.65458e-08)
(1.04767 -1.43415e-06 6.16568e-08)
(1.04769 -4.4017e-06 5.34257e-08)
(1.04771 -5.62981e-06 2.38508e-08)
(1.04772 -4.71927e-06 -1.66789e-08)
(1.04771 -2.06504e-06 -5.00172e-08)
(1.04769 1.32134e-06 -6.28008e-08)
(1.04767 4.23448e-06 -5.0565e-08)
(1.08912 5.85484e-06 -2.79534e-08)
(1.08913 4.54352e-06 1.64851e-08)
(1.08915 1.38973e-06 5.4915e-08)
(1.08917 -2.32065e-06 7.40442e-08)
(1.08918 -5.0665e-06 6.51871e-08)
(1.08919 -5.81634e-06 3.06422e-08)
(1.08918 -4.3581e-06 -1.74174e-08)
(1.08916 -1.30888e-06 -5.83268e-08)
(1.08914 2.18658e-06 -7.52074e-08)
(1.08913 4.89574e-06 -6.25706e-08)
(1.12033 5.39213e-06 -3.32694e-08)
(1.12036 3.71516e-06 1.85905e-08)
(1.12038 5.23774e-07 6.35333e-08)
(1.12039 -2.8783e-06 8.5738e-08)
(1.12039 -5.11147e-06 7.54948e-08)
(1.12038 -5.33744e-06 3.57484e-08)
(1.12036 -3.54451e-06 -1.94259e-08)
(1.12033 -4.68222e-07 -6.64698e-08)
(1.12032 2.74112e-06 -8.67479e-08)
(1.12032 4.96532e-06 -7.30894e-08)
(1.14293 4.34535e-06 -3.66748e-08)
(1.14296 2.64736e-06 2.15125e-08)
(1.14298 -1.33425e-07 7.16395e-08)
(1.14298 -2.86109e-06 9.57008e-08)
(1.14296 -4.44231e-06 8.35748e-08)
(1.14293 -4.28707e-06 3.89612e-08)
(1.1429 -2.51449e-06 -2.22045e-08)
(1.14288 1.6369e-07 -7.42107e-08)
(1.14288 2.74366e-06 -9.65947e-08)
(1.1429 4.33711e-06 -8.13492e-08)
(1.15751 2.82169e-06 -3.83694e-08)
(1.15754 1.54495e-06 2.44224e-08)
(1.15756 -3.65735e-07 7.79153e-08)
(1.15754 -2.12818e-06 1.02888e-07)
(1.15751 -3.04494e-06 8.89348e-08)
(1.15747 -2.77702e-06 4.052e-08)
(1.15743 -1.46173e-06 -2.49224e-08)
(1.15742 3.77342e-07 -8.02369e-08)
(1.15743 2.04966e-06 -1.037e-07)
(1.15747 2.98422e-06 -8.68461e-08)
(1.16455 9.8185e-07 -3.8947e-08)
(1.16459 5.07459e-07 2.61596e-08)
(1.1646 -1.76192e-07 8.13052e-08)
(1.16458 -7.88149e-07 1.06601e-07)
(1.16453 -1.08811e-06 9.15289e-08)
(1.16448 -9.65562e-07 4.10498e-08)
(1.16445 -4.78342e-07 -2.67125e-08)
(1.16444 1.79618e-07 -8.35694e-08)
(1.16446 7.6061e-07 -1.07378e-07)
(1.1645 1.06763e-06 -8.9507e-08)
(1.16455 -9.66588e-07 -3.89538e-08)
(1.16459 -4.89713e-07 2.6163e-08)
(1.1646 1.87879e-07 8.13132e-08)
(1.16458 7.87874e-07 1.06604e-07)
(1.16453 1.0765e-06 9.1534e-08)
(1.16448 9.4863e-07 4.10536e-08)
(1.16445 4.63142e-07 -2.671e-08)
(1.16444 -1.88084e-07 -8.35626e-08)
(1.16446 -7.60498e-07 -1.07381e-07)
(1.1645 -1.05953e-06 -8.95122e-08)
(1.15751 -2.81137e-06 -3.83876e-08)
(1.15754 -1.52983e-06 2.43809e-08)
(1.15756 3.7759e-07 7.79117e-08)
(1.15754 2.13094e-06 1.02892e-07)
(1.15751 3.03805e-06 8.89499e-08)
(1.15747 2.76476e-06 4.05329e-08)
(1.15743 1.4495e-06 -2.49387e-08)
(1.15742 -3.85778e-07 -8.02249e-08)
(1.15743 -2.05245e-06 -1.03706e-07)
(1.15747 -2.98094e-06 -8.68579e-08)
(1.14293 -4.34262e-06 -3.67016e-08)
(1.14296 -2.63701e-06 2.14192e-08)
(1.14298 1.44991e-07 7.16198e-08)
(1.14298 2.86837e-06 9.56972e-08)
(1.14296 4.44271e-06 8.35948e-08)
(1.14293 4.28204e-06 3.89849e-08)
(1.1429 2.50683e-06 -2.22216e-08)
(1.14288 -1.71994e-07 -7.41767e-08)
(1.14288 -2.75076e-06 -9.65948e-08)
(1.1429 -4.34112e-06 -8.13632e-08)
(1.12033 -5.39673e-06 -3.33079e-08)
(1.12036 -3.70999e-06 1.84832e-08)
(1.12038 -5.13057e-07 6.3557e-08)
(1.12039 2.88946e-06 8.57224e-08)
(1.12039 5.11872e-06 7.55139e-08)
(1.12038 5.33946e-06 3.57829e-08)
(1.12036 3.54134e-06 -1.94267e-08)
(1.12033 4.61582e-07 -6.64344e-08)
(1.12032 -2.7517e-06 -8.67288e-08)
(1.12032 -4.97598e-06 -7.31014e-08)
(1.08912 -5.86464e-06 -2.80063e-08)
(1.08913 -4.54251e-06 1.63593e-08)
(1.08915 -1.37943e-06 5.49667e-08)
(1.08917 2.33396e-06 7.40325e-08)
(1.08919 5.07821e-06 6.52047e-08)
(1.08919 5.82344e-06 3.06859e-08)
(1.08918 4.35868e-06 -1.73944e-08)
(1.08916 1.30329e-06 -5.84251e-08)
(1.08914 -2.19882e-06 -7.51884e-08)
(1.08913 -4.91045e-06 -6.2577e-08)
(1.04765 -5.6613e-06 -2.10807e-08)
(1.04764 -4.89222e-06 1.53745e-08)
(1.04765 -2.14755e-06 4.63782e-08)
(1.04767 1.44732e-06 6.15922e-08)
(1.04769 4.41499e-06 5.34469e-08)
(1.04771 5.63954e-06 2.39067e-08)
(1.04772 4.72246e-06 -1.66405e-08)
(1.04771 2.05995e-06 -5.00794e-08)
(1.04769 -1.33322e-06 -6.27592e-08)
(1.04767 -4.25014e-06 -5.05689e-08)
(0.991628 -4.73624e-06 -1.31612e-08)
(0.991602 -4.54506e-06 1.54108e-08)
(0.991592 -2.55619e-06 3.87309e-08)
(0.991603 4.24438e-07 4.93412e-08)
(0.99163 3.26038e-06 4.11084e-08)
(0.991662 4.73536e-06 1.59679e-08)
(0.991686 4.41042e-06 -1.70442e-08)
(0.991694 2.47308e-06 -4.26576e-08)
(0.991684 -3.25835e-07 -5.03521e-08)
(0.991659 -3.11773e-06 -3.79223e-08)
(0.909988 -3.25803e-06 -5.24113e-09)
(0.909943 -3.18254e-06 1.58635e-08)
(0.909907 -1.9222e-06 3.19487e-08)
(0.909898 1.18244e-08 3.69169e-08)
(0.909919 2.048e-06 2.89413e-08)
(0.909959 3.25792e-06 7.77849e-09)
(0.910002 3.22161e-06 -1.80654e-08)
(0.910032 1.9561e-06 -3.59313e-08)
(0.91004 -3.80778e-08 -3.72678e-08)
(0.910025 -2.094e-06 -2.53616e-08)
(0.763289 -1.31697e-06 3.2791e-10)
(0.763234 -1.44834e-06 1.41766e-08)
(0.76319 -1.04141e-06 2.4117e-08)
(0.763171 -3.18115e-07 2.58125e-08)
(0.763184 5.86186e-07 1.79108e-08)
(0.763225 1.3179e-06 1.11223e-09)
(0.76328 1.52917e-06 -1.71954e-08)
(0.763328 1.09524e-06 -2.74193e-08)
(0.763348 2.24383e-07 -2.52524e-08)
(0.763332 -6.88866e-07 -1.43054e-08)
(0.76329 1.3016e-06 -5.12459e-09)
(0.763236 1.44555e-06 2.97942e-08)
(0.763191 1.05169e-06 5.67701e-08)
(0.763172 3.36395e-07 6.39082e-08)
(0.763183 -5.62911e-07 4.69659e-08)
(0.763224 -1.30013e-06 8.11333e-09)
(0.763279 -1.52512e-06 -3.52608e-08)
(0.763327 -1.10812e-06 -6.27475e-08)
(0.763347 -2.42444e-07 -6.20598e-08)
(0.763332 6.67269e-07 -3.98604e-08)
(0.909989 3.23156e-06 -1.82747e-08)
(0.909943 3.18636e-06 3.09518e-08)
(0.909908 1.95305e-06 7.09561e-08)
(0.909898 4.43401e-08 8.57801e-08)
(0.909919 -2.00027e-06 7.01493e-08)
(0.909958 -3.23069e-06 2.32426e-08)
(0.910001 -3.22465e-06 -3.51488e-08)
(0.910032 -1.9884e-06 -7.83909e-08)
(0.91004 -1.87071e-08 -8.63184e-08)
(0.910025 2.047e-06 -6.30258e-08)
(0.991629 4.69947e-06 -3.49669e-08)
(0.991603 4.5537e-06 2.77933e-08)
(0.991592 2.60598e-06 8.17868e-08)
(0.991603 -3.43621e-07 1.08539e-07)
(0.991629 -3.1956e-06 9.37589e-08)
(0.991661 -4.70315e-06 4.04882e-08)
(0.991685 -4.42073e-06 -3.10336e-08)
(0.991694 -2.51974e-06 -8.9349e-08)
(0.991684 2.47255e-07 -1.10474e-07)
(0.99166 3.05172e-06 -8.73156e-08)
(1.04765 5.63142e-06 -5.13146e-08)
(1.04764 4.91716e-06 2.52768e-08)
(1.04765 2.21791e-06 9.36322e-08)
(1.04767 -1.36208e-06 1.30062e-07)
(1.04769 -4.34844e-06 1.16967e-07)
(1.04771 -5.61534e-06 5.69262e-08)
(1.04772 -4.74834e-06 -2.78668e-08)
(1.04771 -2.12722e-06 -1.00854e-07)
(1.04769 1.25197e-06 -1.32428e-07)
(1.04767 4.18135e-06 -1.11104e-07)
(1.08912 5.84877e-06 -6.56257e-08)
(1.08913 4.58302e-06 2.46583e-08)
(1.08915 1.46013e-06 1.0653e-07)
(1.08917 -2.2477e-06 1.51447e-07)
(1.08918 -5.01978e-06 1.38778e-07)
(1.08919 -5.81359e-06 7.10365e-08)
(1.08918 -4.39958e-06 -2.68645e-08)
(1.08916 -1.37746e-06 -1.13531e-07)
(1.08914 2.11644e-06 -1.53962e-07)
(1.08913 4.84857e-06 -1.33405e-07)
(1.12033 5.39749e-06 -7.67992e-08)
(1.12036 3.76202e-06 2.63184e-08)
(1.12038 5.94311e-07 1.20236e-07)
(1.12039 -2.81268e-06 1.7163e-07)
(1.12039 -5.07622e-06 1.57808e-07)
(1.12038 -5.34579e-06 8.18624e-08)
(1.12036 -3.59239e-06 -2.82562e-08)
(1.12034 -5.34418e-07 -1.26514e-07)
(1.12032 2.67813e-06 -1.74004e-07)
(1.12032 4.92915e-06 -1.52858e-07)
(1.14293 4.35782e-06 -8.42851e-08)
(1.14296 2.69324e-06 2.97742e-08)
(1.14298 -7.23303e-08 1.33222e-07)
(1.14298 -2.8094e-06 1.88834e-07)
(1.14296 -4.41968e-06 1.7275e-07)
(1.14293 -4.30182e-06 8.90146e-08)
(1.1429 -2.55949e-06 -3.14775e-08)
(1.14288 1.05485e-07 -1.38979e-07)
(1.14288 2.6935e-06 -1.91072e-07)
(1.1429 4.3134e-06 -1.68158e-07)
(1.15751 2.8339e-06 -8.83381e-08)
(1.15754 1.57827e-06 3.3675e-08)
(1.15756 -3.24692e-07 1.43412e-07)
(1.15754 -2.09527e-06 2.01297e-07)
(1.15751 -3.03312e-06 1.82724e-07)
(1.15747 -2.7905e-06 9.28284e-08)
(1.15743 -1.49513e-06 -3.52065e-08)
(1.15742 3.37427e-07 -1.4882e-07)
(1.15743 2.01754e-06 -2.03429e-07)
(1.15746 2.9716e-06 -1.78396e-07)
(1.16455 9.86789e-07 -8.99211e-08)
(1.16459 5.19396e-07 3.61699e-08)
(1.1646 -1.61669e-07 1.48997e-07)
(1.16458 -7.76791e-07 2.07773e-07)
(1.16453 -1.08449e-06 1.87589e-07)
(1.16448 -9.70932e-07 9.42925e-08)
(1.16445 -4.91203e-07 -3.77393e-08)
(1.16444 1.65154e-07 -1.54272e-07)
(1.16446 7.49462e-07 -2.09852e-07)
(1.1645 1.06377e-06 -1.83391e-07)
(1.16455 -9.71703e-07 -8.99385e-08)
(1.16459 -5.01934e-07 3.61738e-08)
(1.1646 1.73647e-07 1.49017e-07)
(1.16458 7.7684e-07 2.07797e-07)
(1.16453 1.07313e-06 1.87609e-07)
(1.16448 9.53976e-07 9.42989e-08)
(1.16445 4.75509e-07 -3.77434e-08)
(1.16444 -1.73912e-07 -1.54287e-07)
(1.16446 -7.49707e-07 -2.09868e-07)
(1.1645 -1.0558e-06 -1.83406e-07)
(1.15751 -2.82372e-06 -8.83834e-08)
(1.15754 -1.56383e-06 3.3663e-08)
(1.15756 3.36589e-07 1.43457e-07)
(1.15754 2.09829e-06 2.01366e-07)
(1.15751 3.02651e-06 1.82785e-07)
(1.15747 2.77831e-06 9.28456e-08)
(1.15743 1.4824e-06 -3.52182e-08)
(1.15742 -3.46091e-07 -1.48851e-07)
(1.15743 -2.02064e-06 -2.03472e-07)
(1.15746 -2.96846e-06 -1.78439e-07)
(1.14293 -4.35527e-06 -8.437e-08)
(1.14296 -2.68326e-06 2.9697e-08)
(1.14298 8.43211e-08 1.3326e-07)
(1.14298 2.81685e-06 1.88932e-07)
(1.14296 4.42033e-06 1.72847e-07)
(1.14293 4.29697e-06 8.90556e-08)
(1.1429 2.55171e-06 -3.15066e-08)
(1.14288 -1.1404e-07 -1.39013e-07)
(1.14288 -2.70077e-06 -1.91124e-07)
(1.1429 -4.31756e-06 -1.68224e-07)
(1.12033 -5.4023e-06 -7.69217e-08)
(1.12036 -3.75704e-06 2.62036e-08)
(1.12038 -5.82904e-07 1.20306e-07)
(1.12039 2.82408e-06 1.71741e-07)
(1.12039 5.0837e-06 1.57929e-07)
(1.12038 5.34804e-06 8.19286e-08)
(1.12036 3.58938e-06 -2.8264e-08)
(1.12033 5.26494e-07 -1.26523e-07)
(1.12032 -2.68891e-06 -1.74036e-07)
(1.12032 -4.93995e-06 -1.52942e-07)
(1.08912 -5.85885e-06 -6.57899e-08)
(1.08913 -4.58244e-06 2.45094e-08)
(1.08915 -1.45127e-06 1.06637e-07)
(1.08917 2.26082e-06 1.51568e-07)
(1.08918 5.0317e-06 1.38907e-07)
(1.08919 5.82094e-06 7.11202e-08)
(1.08918 4.4004e-06 -2.68313e-08)
(1.08916 1.37097e-06 -1.1364e-07)
(1.08914 -2.12877e-06 -1.53977e-07)
(1.08913 -4.86336e-06 -1.33495e-07)
(1.04765 -5.64407e-06 -5.15109e-08)
(1.04764 -4.91984e-06 2.50951e-08)
(1.04765 -2.21171e-06 9.36173e-08)
(1.04767 1.37489e-06 1.30137e-07)
(1.04769 4.36191e-06 1.17085e-07)
(1.04771 5.6253e-06 5.70181e-08)
(1.04772 4.75176e-06 -2.78012e-08)
(1.04771 2.12275e-06 -1.00855e-07)
(1.04769 -1.26371e-06 -1.32374e-07)
(1.04767 -4.19705e-06 -1.11195e-07)
(0.991629 -4.71181e-06 -3.51761e-08)
(0.991603 -4.55807e-06 2.76051e-08)
(0.991592 -2.60148e-06 8.18345e-08)
(0.991603 3.55894e-07 1.08627e-07)
(0.991629 3.20812e-06 9.38441e-08)
(0.991661 4.7132e-06 4.05672e-08)
(0.991686 4.42532e-06 -3.09263e-08)
(0.991694 2.51746e-06 -8.92791e-08)
(0.991684 -2.58338e-07 -1.1037e-07)
(0.99166 -3.06571e-06 -8.74052e-08)
(0.909989 -3.2398e-06 -1.84645e-08)
(0.909943 -3.18915e-06 3.08231e-08)
(0.909908 -1.94989e-06 7.10331e-08)
(0.909898 -3.57665e-08 8.59599e-08)
(0.909919 2.00909e-06 7.01888e-08)
(0.909958 3.23795e-06 2.32969e-08)
(0.910001 3.22798e-06 -3.50096e-08)
(0.910032 1.98641e-06 -7.82544e-08)
(0.91004 1.02288e-08 -8.62651e-08)
(0.910025 -2.05666e-06 -6.31248e-08)
(0.76329 -1.30561e-06 -5.24133e-09)
(0.763235 -1.44738e-06 2.97941e-08)
(0.763191 -1.05077e-06 5.69087e-08)
(0.763172 -3.33628e-07 6.38994e-08)
(0.763183 5.67074e-07 4.69416e-08)
(0.763224 1.30414e-06 8.13919e-09)
(0.763279 1.52736e-06 -3.50964e-08)
(0.763327 1.10738e-06 -6.25606e-08)
(0.763347 2.39399e-07 -6.20272e-08)
(0.763332 -6.71596e-07 -3.9989e-08)
(0.76329 1.2935e-06 -9.93514e-09)
(0.763236 1.44389e-06 3.21459e-08)
(0.763192 1.05647e-06 6.51039e-08)
(0.763172 3.43343e-07 7.51796e-08)
(0.763183 -5.50258e-07 5.65646e-08)
(0.763224 -1.29027e-06 1.27016e-08)
(0.763279 -1.52313e-06 -3.69094e-08)
(0.763326 -1.11444e-06 -7.03943e-08)
(0.763347 -2.53981e-07 -7.29302e-08)
(0.763332 6.55567e-07 -5.00622e-08)
(0.909989 3.21705e-06 -2.31537e-08)
(0.909944 3.18847e-06 3.20512e-08)
(0.909909 1.97018e-06 7.74194e-08)
(0.909898 7.60813e-08 9.53065e-08)
(0.909918 -1.97297e-06 7.85931e-08)
(0.909958 -3.21507e-06 2.76275e-08)
(0.910001 -3.22649e-06 -3.57863e-08)
(0.910031 -2.0069e-06 -8.4013e-08)
(0.91004 -5.53075e-08 -9.55696e-08)
(0.910025 2.02057e-06 -7.20577e-08)
(0.991629 4.67957e-06 -3.81966e-08)
(0.991603 4.55927e-06 2.78414e-08)
(0.991592 2.63512e-06 8.50319e-08)
(0.991602 -2.94347e-07 1.13641e-07)
(0.991629 -3.15793e-06 9.8606e-08)
(0.991661 -4.68485e-06 4.32641e-08)
(0.991685 -4.42749e-06 -3.07185e-08)
(0.991694 -2.54748e-06 -9.1808e-08)
(0.991684 1.99117e-07 -1.1521e-07)
(0.99166 3.0144e-06 -9.26228e-08)
(1.04765 5.6153e-06 -5.25162e-08)
(1.04764 4.9321e-06 2.38287e-08)
(1.04765 2.25724e-06 9.25055e-08)
(1.04767 -1.3119e-06 1.29598e-07)
(1.04769 -4.30883e-06 1.17221e-07)
(1.04771 -5.60127e-06 5.777e-08)
(1.04772 -4.76483e-06 -2.6052e-08)
(1.04771 -2.16448e-06 -9.91702e-08)
(1.04769 1.20428e-06 -1.31729e-07)
(1.04767 4.14192e-06 -1.11754e-07)
(1.08912 5.83986e-06 -6.5001e-08)
(1.08913 4.6065e-06 2.11792e-08)
(1.08915 1.50644e-06 1.0021e-07)
(1.08917 -2.19594e-06 1.44784e-07)
(1.08918 -4.98357e-06 1.34205e-07)
(1.08919 -5.80703e-06 7.019e-08)
(1.08918 -4.42403e-06 -2.30112e-08)
(1.08916 -1.42158e-06 -1.06523e-07)
(1.08914 2.06699e-06 -1.47117e-07)
(1.08913 4.81217e-06 -1.29179e-07)
(1.12033 5.39636e-06 -7.49021e-08)
(1.12035 3.79081e-06 2.03168e-08)
(1.12038 6.42853e-07 1.08807e-07)
(1.12039 -2.76478e-06 1.58932e-07)
(1.12039 -5.04745e-06 1.48802e-07)
(1.12038 -5.34688e-06 7.98805e-08)
(1.12036 -3.62158e-06 -2.1815e-08)
(1.12034 -5.80963e-07 -1.14521e-07)
(1.12032 2.63219e-06 -1.61258e-07)
(1.12032 4.89988e-06 -1.44155e-07)
(1.14293 4.36216e-06 -8.18135e-08)
(1.14296 2.72156e-06 2.10108e-08)
(1.14298 -3.0585e-08 1.16738e-07)
(1.14298 -2.77116e-06 1.7085e-07)
(1.14296 -4.39992e-06 1.60217e-07)
(1.14293 -4.30774e-06 8.65682e-08)
(1.1429 -2.58886e-06 -2.23334e-08)
(1.14289 6.48052e-08 -1.2214e-07)
(1.14288 2.6566e-06 -1.73139e-07)
(1.1429 4.29301e-06 -1.55874e-07)
(1.15751 2.83933e-06 -8.58293e-08)
(1.15754 1.59927e-06 2.24247e-08)
(1.15756 -2.96231e-07 1.23006e-07)
(1.15754 -2.07059e-06 1.79471e-07)
(1.15751 -3.022e-06 1.67859e-07)
(1.15747 -2.79695e-06 9.04222e-08)
(1.15743 -1.51701e-06 -2.37695e-08)
(1.15742 3.09707e-07 -1.28234e-07)
(1.15743 1.99364e-06 -1.81713e-07)
(1.15746 2.95998e-06 -1.63733e-07)
(1.16455 9.89156e-07 -8.75558e-08)
(1.16459 5.27257e-07 2.35777e-08)
(1.1646 -1.51483e-07 1.26516e-07)
(1.16458 -7.68199e-07 1.83956e-07)
(1.16453 -1.0809e-06 1.71603e-07)
(1.16448 -9.73698e-07 9.20419e-08)
(1.16445 -4.99138e-07 -2.48356e-08)
(1.16444 1.55284e-07 -1.3159e-07)
(1.16446 7.4115e-07 -1.86165e-07)
(1.1645 1.06001e-06 -1.67591e-07)
(1.16455 -9.74094e-07 -8.7563e-08)
(1.16459 -5.09386e-07 2.35791e-08)
(1.1646 1.63686e-07 1.26513e-07)
(1.16458 7.68504e-07 1.83968e-07)
(1.16453 1.06972e-06 1.71616e-07)
(1.16448 9.56722e-07 9.20509e-08)
(1.16445 4.83587e-07 -2.48335e-08)
(1.16444 -1.6429e-07 -1.31602e-07)
(1.16446 -7.41575e-07 -1.86171e-07)
(1.1645 -1.05217e-06 -1.67601e-07)
(1.15751 -2.82922e-06 -8.58589e-08)
(1.15754 -1.58456e-06 2.24546e-08)
(1.15756 3.0829e-07 1.23016e-07)
(1.15754 2.07384e-06 1.79508e-07)
(1.15751 3.01555e-06 1.67895e-07)
(1.15747 2.78475e-06 9.0442e-08)
(1.15743 1.5043e-06 -2.37207e-08)
(1.15742 -3.18578e-07 -1.28239e-07)
(1.15743 -1.99688e-06 -1.81731e-07)
(1.15746 -2.95695e-06 -1.63763e-07)
(1.14293 -4.35968e-06 -8.18648e-08)
(1.14296 -2.71177e-06 2.09899e-08)
(1.14298 4.24515e-08 1.1671e-07)
(1.14298 2.77876e-06 1.70897e-07)
(1.14296 4.40072e-06 1.60271e-07)
(1.14293 4.30294e-06 8.66029e-08)
(1.1429 2.5809e-06 -2.22696e-08)
(1.14288 -7.33729e-08 -1.22143e-07)
(1.14288 -2.66394e-06 -1.73156e-07)
(1.1429 -4.29724e-06 -1.55916e-07)
(1.12033 -5.40127e-06 -7.49791e-08)
(1.12035 -3.78597e-06 2.02575e-08)
(1.12038 -6.31499e-07 1.08736e-07)
(1.12039 2.7762e-06 1.58968e-07)
(1.12039 5.05504e-06 1.48864e-07)
(1.12038 5.34921e-06 7.99312e-08)
(1.12036 3.61858e-06 -2.17338e-08)
(1.12034 5.7312e-07 -1.14478e-07)
(1.12032 -2.64298e-06 -1.61257e-07)
(1.12032 -4.91072e-06 -1.44201e-07)
(1.08912 -5.85005e-06 -6.51e-08)
(1.08913 -4.60598e-06 2.11017e-08)
(1.08915 -1.49691e-06 1.00249e-07)
(1.08917 2.20908e-06 1.44812e-07)
(1.08918 4.99553e-06 1.34261e-07)
(1.08919 5.81449e-06 7.02547e-08)
(1.08918 4.42493e-06 -2.29009e-08)
(1.08916 1.41536e-06 -1.06465e-07)
(1.08914 -2.07918e-06 -1.47089e-07)
(1.08913 -4.82698e-06 -1.29222e-07)
(1.04765 -5.62805e-06 -5.26303e-08)
(1.04764 -4.93484e-06 2.3744e-08)
(1.04765 -2.2497e-06 9.26251e-08)
(1.04767 1.32491e-06 1.29611e-07)
(1.04769 4.32228e-06 1.1726e-07)
(1.04771 5.61133e-06 5.78415e-08)
(1.04772 4.76837e-06 -2.59125e-08)
(1.04771 2.16018e-06 -9.90512e-08)
(1.04769 -1.21589e-06 -1.3165e-07)
(1.04767 -4.15759e-06 -1.11789e-07)
(0.991629 -4.69198e-06 -3.83147e-08)
(0.991603 -4.56378e-06 2.77598e-08)
(0.991592 -2.63005e-06 8.51681e-08)
(0.991602 3.074e-07 1.13621e-07)
(0.991629 3.17045e-06 9.86167e-08)
(0.991661 4.69498e-06 4.33348e-08)
(0.991686 4.43222e-06 -3.0539e-08)
(0.991694 2.54497e-06 -9.16985e-08)
(0.991684 -2.10628e-07 -1.15108e-07)
(0.99166 -3.02835e-06 -9.26477e-08)
(0.909989 -3.22536e-06 -2.3261e-08)
(0.909944 -3.19139e-06 3.19936e-08)
(0.909908 -1.96738e-06 7.75543e-08)
(0.909898 -6.79789e-08 9.53483e-08)
(0.909918 1.98177e-06 7.8574e-08)
(0.909958 3.22237e-06 2.76929e-08)
(0.910001 3.22991e-06 -3.55779e-08)
(0.910032 2.00501e-06 -8.38753e-08)
(0.91004 4.62281e-08 -9.55484e-08)
(0.910025 -2.03022e-06 -7.20812e-08)
(0.76329 -1.29753e-06 -1.00102e-08)
(0.763236 -1.44576e-06 3.21469e-08)
(0.763192 -1.05592e-06 6.52373e-08)
(0.763172 -3.41902e-07 7.51721e-08)
(0.763183 5.54356e-07 5.65129e-08)
(0.763224 1.29431e-06 1.27635e-08)
(0.763279 1.52536e-06 -3.66819e-08)
(0.763327 1.11389e-06 -7.02468e-08)
(0.763347 2.50775e-07 -7.29429e-08)
(0.763332 -6.59879e-07 -5.00959e-08)
(0.763291 1.28875e-06 -8.29156e-09)
(0.763237 1.44383e-06 2.49466e-08)
(0.763192 1.06005e-06 5.08074e-08)
(0.763172 3.49068e-07 5.85951e-08)
(0.763183 -5.41858e-07 4.41613e-08)
(0.763223 -1.28431e-06 1.01179e-08)
(0.763278 -1.52272e-06 -2.85736e-08)
(0.763326 -1.11967e-06 -5.45769e-08)
(0.763347 -2.62688e-07 -5.70095e-08)
(0.763333 6.47924e-07 -3.94836e-08)
(0.909989 3.20842e-06 -1.75133e-08)
(0.909944 3.19118e-06 2.51592e-08)
(0.909909 1.98275e-06 5.98396e-08)
(0.909898 9.98364e-08 7.32874e-08)
(0.909918 -1.95488e-06 5.9828e-08)
(0.909958 -3.20562e-06 2.05576e-08)
(0.910001 -3.22912e-06 -2.80468e-08)
(0.910031 -2.02013e-06 -6.45524e-08)
(0.91004 -8.25605e-08 -7.33017e-08)
(0.910026 2.00315e-06 -5.51306e-08)
(0.991629 4.66753e-06 -2.75677e-08)
(0.991603 4.56463e-06 2.24443e-08)
(0.991592 2.65634e-06 6.50814e-08)
(0.991602 -2.59344e-07 8.56675e-08)
(0.991629 -3.13287e-06 7.32911e-08)
(0.991661 -4.67386e-06 3.10768e-08)
(0.991685 -4.43356e-06 -2.46852e-08)
(0.991694 -2.56907e-06 -6.98937e-08)
(0.991684 1.63761e-07 -8.67061e-08)
(0.99166 2.98958e-06 -6.89978e-08)
(1.04765 5.60566e-06 -3.69616e-08)
(1.04764 4.94374e-06 1.97134e-08)
(1.04765 2.28595e-06 6.98009e-08)
(1.04767 -1.27744e-06 9.59127e-08)
(1.04769 -4.28245e-06 8.53932e-08)
(1.04771 -5.59298e-06 4.06431e-08)
(1.04772 -4.77718e-06 -2.14375e-08)
(1.04771 -2.19291e-06 -7.46473e-08)
(1.04769 1.17109e-06 -9.7428e-08)
(1.04767 4.11566e-06 -8.14822e-08)
(1.08912 5.83467e-06 -4.50724e-08)
(1.08913 4.62364e-06 1.7775e-08)
(1.08915 1.54113e-06 7.45252e-08)
(1.08917 -2.16032e-06 1.05382e-07)
(1.08918 -4.95934e-06 9.61795e-08)
(1.08919 -5.80337e-06 4.87453e-08)
(1.08918 -4.4417e-06 -1.91637e-08)
(1.08916 -1.45317e-06 -7.91173e-08)
(1.08914 2.03316e-06 -1.07074e-07)
(1.08913 4.78778e-06 -9.25956e-08)
(1.12033 5.39596e-06 -5.14853e-08)
(1.12035 3.81085e-06 1.69123e-08)
(1.12038 6.77679e-07 7.9637e-08)
(1.12039 -2.73205e-06 1.13998e-07)
(1.12039 -5.02808e-06 1.05299e-07)
(1.12038 -5.34794e-06 5.50548e-08)
(1.12036 -3.64205e-06 -1.80493e-08)
(1.12034 -6.13104e-07 -8.38181e-08)
(1.12032 2.60084e-06 -1.15729e-07)
(1.12032 4.88012e-06 -1.01993e-07)
(1.14293 4.36513e-06 -5.59842e-08)
(1.14296 2.74036e-06 1.69915e-08)
(1.14298 -2.67447e-09 8.41733e-08)
(1.14298 -2.74528e-06 1.21134e-07)
(1.14296 -4.38647e-06 1.12353e-07)
(1.14293 -4.31183e-06 5.94237e-08)
(1.1429 -2.6086e-06 -1.79972e-08)
(1.14289 3.74085e-08 -8.81535e-08)
(1.14288 2.6315e-06 -1.22873e-07)
(1.1429 4.27914e-06 -1.09263e-07)
(1.1575 2.84289e-06 -5.86328e-08)
(1.15754 1.61309e-06 1.75654e-08)
(1.15755 -2.77306e-07 8.77232e-08)
(1.15754 -2.05387e-06 1.26238e-07)
(1.15751 -3.01438e-06 1.17041e-07)
(1.15747 -2.80127e-06 6.19657e-08)
(1.15744 -1.53121e-06 -1.85396e-08)
(1.15742 2.91201e-07 -9.15833e-08)
(1.15743 1.97741e-06 -1.27968e-07)
(1.15746 2.95201e-06 -1.14099e-07)
(1.16455 9.90666e-07 -5.97897e-08)
(1.16459 5.32592e-07 1.81363e-08)
(1.1646 -1.44655e-07 8.97178e-08)
(1.16458 -7.62383e-07 1.28874e-07)
(1.16453 -1.07845e-06 1.19323e-07)
(1.16448 -9.75512e-07 6.30566e-08)
(1.16445 -5.04247e-07 -1.89871e-08)
(1.16444 1.48732e-07 -9.346e-08)
(1.16446 7.35528e-07 -1.30593e-07)
(1.1645 1.05742e-06 -1.16462e-07)
(1.16455 -9.75652e-07 -5.97941e-08)
(1.16459 -5.1462e-07 1.81343e-08)
(1.1646 1.5684e-07 8.97202e-08)
(1.16458 7.62845e-07 1.2888e-07)
(1.16453 1.06738e-06 1.19331e-07)
(1.16448 9.5858e-07 6.30637e-08)
(1.16445 4.88728e-07 -1.89916e-08)
(1.16444 -1.57844e-07 -9.34674e-08)
(1.16446 -7.3606e-07 -1.30597e-07)
(1.1645 -1.04969e-06 -1.16468e-07)
(1.1575 -2.83284e-06 -5.86496e-08)
(1.15754 -1.59854e-06 1.75725e-08)
(1.15756 2.89203e-07 8.77359e-08)
(1.15754 2.05724e-06 1.26255e-07)
(1.15751 3.00804e-06 1.17063e-07)
(1.15747 2.7891e-06 6.19843e-08)
(1.15744 1.51872e-06 -1.85114e-08)
(1.15742 -3.00054e-07 -9.15824e-08)
(1.15743 -1.98077e-06 -1.27979e-07)
(1.15746 -2.94909e-06 -1.14118e-07)
(1.14293 -4.36274e-06 -5.60195e-08)
(1.14296 -2.73081e-06 1.6998e-08)
(1.14298 1.42758e-08 8.41875e-08)
(1.14298 2.75289e-06 1.21154e-07)
(1.14296 4.38737e-06 1.12386e-07)
(1.14293 4.30708e-06 5.94499e-08)
(1.1429 2.60076e-06 -1.79414e-08)
(1.14289 -4.59354e-08 -8.81406e-08)
(1.14288 -2.63889e-06 -1.22884e-07)
(1.1429 -4.28345e-06 -1.0929e-07)
(1.12033 -5.40098e-06 -5.15377e-08)
(1.12035 -3.80604e-06 1.69018e-08)
(1.12038 -6.65364e-07 7.96377e-08)
(1.12039 2.74355e-06 1.14014e-07)
(1.12039 5.03572e-06 1.05338e-07)
(1.12038 5.35036e-06 5.5091e-08)
(1.12036 3.63908e-06 -1.79809e-08)
(1.12034 6.0523e-07 -8.37896e-08)
(1.12032 -2.61162e-06 -1.1573e-07)
(1.12032 -4.89102e-06 -1.02024e-07)
(1.08912 -5.84495e-06 -4.51376e-08)
(1.08913 -4.62311e-06 1.77481e-08)
(1.08915 -1.53038e-06 7.44996e-08)
(1.08917 2.17358e-06 1.05383e-07)
(1.08918 4.97134e-06 9.62166e-08)
(1.08919 5.81092e-06 4.87923e-08)
(1.08918 4.44267e-06 -1.90781e-08)
(1.08916 1.44679e-06 -7.90965e-08)
(1.08914 -2.0453e-06 -1.07061e-07)
(1.08913 -4.80261e-06 -9.26265e-08)
(1.04765 -5.61847e-06 -3.70352e-08)
(1.04764 -4.94653e-06 1.96719e-08)
(1.04765 -2.27883e-06 6.97975e-08)
(1.04767 1.29023e-06 9.59116e-08)
(1.04769 4.29592e-06 8.54227e-08)
(1.04771 5.60309e-06 4.06944e-08)
(1.04772 4.78085e-06 -2.13279e-08)
(1.04771 2.1884e-06 -7.46257e-08)
(1.04769 -1.18268e-06 -9.73963e-08)
(1.04767 -4.13132e-06 -8.1509e-08)
(0.991629 -4.67999e-06 -2.76438e-08)
(0.991603 -4.56922e-06 2.24005e-08)
(0.991592 -2.65191e-06 6.50121e-08)
(0.991602 2.72271e-07 8.56242e-08)
(0.991629 3.14539e-06 7.33058e-08)
(0.991661 4.68402e-06 3.113e-08)
(0.991685 4.43842e-06 -2.45568e-08)
(0.991694 2.56653e-06 -6.98597e-08)
(0.991684 -1.75727e-07 -8.66533e-08)
(0.99166 -3.00351e-06 -6.90175e-08)
(0.909989 -3.21676e-06 -1.75838e-08)
(0.909944 -3.19417e-06 2.51222e-08)
(0.909909 -1.97991e-06 5.9777e-08)
(0.909898 -9.06119e-08 7.3259e-08)
(0.909918 1.96369e-06 5.9822e-08)
(0.909958 3.21294e-06 2.06098e-08)
(0.910001 3.23259e-06 -2.79042e-08)
(0.910031 2.01834e-06 -6.45009e-08)
(0.91004 7.29185e-08 -7.33289e-08)
(0.910026 -2.0128e-06 -5.51474e-08)
(0.763291 -1.2928e-06 -8.34416e-09)
(0.763236 -1.44572e-06 2.49354e-08)
(0.763192 -1.05946e-06 5.07513e-08)
(0.763172 -3.46528e-07 5.87035e-08)
(0.763183 5.45981e-07 4.41392e-08)
(0.763224 1.28835e-06 1.01711e-08)
(0.763278 1.52501e-06 -2.84166e-08)
(0.763326 1.11913e-06 -5.45337e-08)
(0.763347 2.59381e-07 -5.70515e-08)
(0.763333 -6.52213e-07 -3.95005e-08)
(0.763291 1.28666e-06 -3.93707e-09)
(0.763237 1.44388e-06 7.93305e-09)
(0.763192 1.06191e-06 1.76711e-08)
(0.763172 3.52269e-07 2.10031e-08)
(0.763183 -5.38117e-07 1.63929e-08)
(0.763223 -1.28176e-06 4.54276e-09)
(0.763278 -1.52251e-06 -9.22318e-09)
(0.763326 -1.12203e-06 -1.8898e-08)
(0.763347 -2.66636e-07 -2.04158e-08)
(0.763333 6.4455e-07 -1.47647e-08)
(0.90999 3.2048e-06 -7.26815e-09)
(0.909944 3.19273e-06 7.84421e-09)
(0.909909 1.98871e-06 2.06795e-08)
(0.909898 1.11321e-07 2.61141e-08)
(0.909918 -1.94692e-06 2.18907e-08)
(0.909958 -3.20166e-06 8.28983e-09)
(0.91 -3.23067e-06 -8.89346e-09)
(0.910031 -2.02643e-06 -2.22378e-08)
(0.91004 -9.56441e-08 -2.60229e-08)
(0.910026 1.99549e-06 -2.02433e-08)
(0.991629 4.66251e-06 -1.07373e-08)
(0.991603 4.56751e-06 6.82567e-09)
(0.991592 2.66619e-06 2.23485e-08)
(0.991602 -2.434e-07 3.02385e-08)
(0.991629 -3.1219e-06 2.64569e-08)
(0.99166 -4.66936e-06 1.19275e-08)
(0.991685 -4.43682e-06 -7.65214e-09)
(0.991694 -2.57873e-06 -2.3956e-08)
(0.991684 1.47322e-07 -3.05362e-08)
(0.99166 2.97869e-06 -2.49451e-08)
(1.04765 5.60185e-06 -1.39182e-08)
(1.04764 4.9495e-06 5.82026e-09)
(1.04765 2.29929e-06 2.37988e-08)
(1.04767 -1.26205e-06 3.35585e-08)
(1.04769 -4.27102e-06 3.0472e-08)
(1.04771 -5.58982e-06 1.51745e-08)
(1.04772 -4.78328e-06 -6.46686e-09)
(1.04771 -2.20583e-06 -2.5396e-08)
(1.04769 1.15637e-06 -3.40211e-08)
(1.04767 4.10428e-06 -2.90913e-08)
(1.08912 5.83295e-06 -1.6628e-08)
(1.08913 4.63189e-06 5.08929e-09)
(1.08915 1.55644e-06 2.52474e-08)
(1.08917 -2.14458e-06 3.65818e-08)
(1.08918 -4.94897e-06 3.39902e-08)
(1.08919 -5.80234e-06 1.78883e-08)
(1.08918 -4.45016e-06 -5.61323e-09)
(1.08916 -1.46804e-06 -2.67679e-08)
(1.08914 2.01811e-06 -3.71145e-08)
(1.08913 4.77733e-06 -3.27242e-08)
(1.12033 5.39637e-06 -1.87482e-08)
(1.12035 3.82035e-06 4.72699e-09)
(1.12038 6.92819e-07 2.67449e-08)
(1.12039 -2.71773e-06 3.92837e-08)
(1.12039 -5.01993e-06 3.69243e-08)
(1.12038 -5.34902e-06 1.99807e-08)
(1.12036 -3.65173e-06 -5.15966e-09)
(1.12034 -6.27923e-07 -2.82125e-08)
(1.12032 2.58705e-06 -3.98505e-08)
(1.12032 4.87179e-06 -3.57548e-08)
(1.14292 4.36691e-06 -2.02232e-08)
(1.14295 2.74938e-06 4.69013e-09)
(1.14298 1.0053e-08 2.81219e-08)
(1.14298 -2.73395e-06 4.1509e-08)
(1.14296 -4.38093e-06 3.91671e-08)
(1.14293 -4.31422e-06 2.14147e-08)
(1.1429 -2.61777e-06 -5.07229e-09)
(1.14289 2.51082e-08 -2.95218e-08)
(1.14288 2.62057e-06 -4.20832e-08)
(1.1429 4.27341e-06 -3.80734e-08)
(1.1575 2.84478e-06 -2.10872e-08)
(1.15754 1.61986e-06 4.85073e-09)
(1.15755 -2.68587e-07 2.92126e-08)
(1.15754 -2.04661e-06 4.309e-08)
(1.15751 -3.01131e-06 4.06434e-08)
(1.15747 -2.80358e-06 2.22399e-08)
(1.15744 -1.53763e-06 -5.19683e-09)
(1.15742 2.8296e-07 -3.05599e-08)
(1.15743 1.97037e-06 -4.36665e-08)
(1.15746 2.94879e-06 -3.96012e-08)
(1.16455 9.91462e-07 -2.14615e-08)
(1.16459 5.35167e-07 5.02541e-09)
(1.1646 -1.41462e-07 2.98283e-08)
(1.16458 -7.59884e-07 4.39028e-08)
(1.16453 -1.07747e-06 4.13575e-08)
(1.16448 -9.76441e-07 2.25923e-08)
(1.16445 -5.06518e-07 -5.30969e-09)
(1.16444 1.4582e-07 -3.11279e-08)
(1.16446 7.33092e-07 -4.44795e-08)
(1.1645 1.05638e-06 -4.03434e-08)
(1.16455 -9.76456e-07 -2.14626e-08)
(1.16459 -5.17122e-07 5.02179e-09)
(1.1646 1.53874e-07 2.98326e-08)
(1.16458 7.60374e-07 4.39039e-08)
(1.16453 1.06646e-06 4.13604e-08)
(1.16448 9.59541e-07 2.25952e-08)
(1.16445 4.91018e-07 -5.31288e-09)
(1.16444 -1.54984e-07 -3.11314e-08)
(1.16446 -7.33665e-07 -4.4481e-08)
(1.1645 -1.04869e-06 -4.03452e-08)
(1.1575 -2.8348e-06 -2.10928e-08)
(1.15754 -1.60493e-06 4.85707e-09)
(1.15756 2.80858e-07 2.92315e-08)
(1.15754 2.05002e-06 4.30922e-08)
(1.15751 3.00502e-06 4.06512e-08)
(1.15747 2.79141e-06 2.22463e-08)
(1.15744 1.52526e-06 -5.18544e-09)
(1.15742 -2.91801e-07 -3.05586e-08)
(1.15743 -1.97375e-06 -4.36696e-08)
(1.15746 -2.94589e-06 -3.96071e-08)
(1.14292 -4.36461e-06 -2.02383e-08)
(1.14296 -2.73957e-06 4.72575e-09)