/*--------------------------------*- C++ -*----------------------------------*\
| =========                 |                                                 |
| \\      /  F ield         | OpenFOAM: The Open Source CFD Toolbox           |
|  \\    /   O peration     | Version:  2.4.0                                 |
|   \\  /    A nd           | Web:      www.OpenFOAM.org                      |
|    \\/     M anipulation  |                                                 |
\*---------------------------------------------------------------------------*/
FoamFile
{
    version     2.0;
    format      ascii;
    class       volScalarField;
    location    "600";
    object      nut;
}
// * * * * * * * * * * * * * * * * * * * * * * * * * * * * * * * * * * * * * //

dimensions      [0 2 -1 0 0 0 0];

internalField   nonuniform List<scalar> 
6000
(
0.000312801
0.000312802
0.000312805
0.000312808
0.000312811
0.000312811
0.000312811
0.000312809
0.000312805
0.000312803
0.000781771
0.000781769
0.000781796
0.000781845
0.000781901
0.000781946
0.000781961
0.000781938
0.000781886
0.000781827
0.00121925
0.00121926
0.00121933
0.00121944
0.00121956
0.00121964
0.00121966
0.0012196
0.00121948
0.00121936
0.0016269
0.00162692
0.00162705
0.00162723
0.00162742
0.00162754
0.00162754
0.00162743
0.00162724
0.00162705
0.00199678
0.00199682
0.00199701
0.00199727
0.00199752
0.00199767
0.00199765
0.00199746
0.0019972
0.00199695
0.00232807
0.00232817
0.00232844
0.00232877
0.00232907
0.00232921
0.00232914
0.00232891
0.00232855
0.00232827
0.00262239
0.00262254
0.00262287
0.00262328
0.00262361
0.00262374
0.00262362
0.00262331
0.0026229
0.00262258
0.00288207
0.00288228
0.00288269
0.00288315
0.00288349
0.00288359
0.00288342
0.00288302
0.00288258
0.00288223
0.00310967
0.00310994
0.00311041
0.00311091
0.00311126
0.00311131
0.00311106
0.00311061
0.00311012
0.00310979
0.00330773
0.00330809
0.00330861
0.00330913
0.00330945
0.00330945
0.00330915
0.00330862
0.00330812
0.00330781
0.00347883
0.00347926
0.00347985
0.00348037
0.00348064
0.00348058
0.00348019
0.00347964
0.00347912
0.00347885
0.0036255
0.003626
0.00362662
0.00362714
0.00362736
0.00362721
0.00362675
0.00362618
0.00362567
0.00362546
0.00375026
0.00375081
0.00375145
0.00375194
0.00375211
0.0037519
0.00375139
0.00375079
0.0037503
0.00375015
0.00385568
0.00385629
0.00385693
0.00385737
0.00385746
0.00385718
0.00385662
0.00385601
0.00385559
0.0038555
0.00394436
0.00394503
0.00394566
0.00394605
0.00394608
0.00394573
0.00394511
0.00394453
0.00394416
0.00394414
0.00401906
0.00401973
0.00402035
0.0040207
0.00402063
0.00402021
0.00401959
0.00401902
0.00401871
0.00401876
0.00408254
0.00408325
0.00408381
0.0040841
0.00408396
0.00408348
0.00408285
0.00408231
0.00408206
0.00408219
0.00413768
0.0041384
0.00413895
0.00413915
0.00413893
0.00413841
0.00413779
0.00413728
0.00413712
0.00413731
0.00418744
0.00418813
0.0041886
0.00418874
0.00418847
0.00418792
0.00418732
0.00418689
0.00418675
0.00418701
0.00423459
0.00423525
0.00423569
0.00423575
0.00423543
0.00423488
0.00423433
0.00423393
0.00423387
0.00423415
0.00428181
0.00428239
0.00428274
0.00428274
0.00428241
0.00428188
0.00428136
0.00428103
0.00428103
0.00428136
0.00433115
0.00433167
0.00433195
0.00433191
0.00433153
0.00433107
0.00433058
0.00433037
0.0043304
0.00433072
0.00438405
0.00438451
0.0043847
0.00438463
0.00438429
0.00438384
0.0043835
0.00438331
0.00438335
0.00438365
0.00444084
0.00444117
0.00444126
0.00444118
0.00444091
0.00444059
0.00444034
0.00444026
0.0044403
0.0044405
0.00450053
0.00450071
0.00450071
0.00450061
0.00450044
0.00450026
0.00450015
0.00450012
0.00450018
0.0045003
0.00456065
0.00456065
0.00456053
0.00456042
0.00456037
0.0045604
0.00456047
0.00456054
0.00456057
0.00456052
0.00461736
0.00461715
0.00461691
0.00461681
0.0046169
0.00461712
0.00461744
0.00461761
0.0046176
0.00461742
0.00466606
0.00466559
0.00466517
0.00466509
0.00466531
0.00466583
0.00466636
0.00466671
0.00466672
0.00466635
0.004702
0.00470126
0.00470066
0.0047005
0.00470091
0.00470169
0.00470253
0.00470305
0.00470309
0.00470257
0.00472134
0.00472028
0.00471945
0.00471922
0.00471976
0.00472083
0.00472195
0.00472274
0.00472279
0.00472215
0.00472183
0.00472042
0.00471932
0.00471901
0.00471962
0.00472093
0.00472239
0.00472345
0.00472363
0.0047229
0.00470347
0.00470174
0.00470035
0.00469988
0.00470055
0.00470202
0.0047038
0.00470515
0.0047055
0.00470476
0.00466844
0.00466642
0.00466474
0.00466402
0.00466465
0.00466629
0.00466834
0.00467
0.0046706
0.00466991
0.00462062
0.00461833
0.00461634
0.0046154
0.00461589
0.00461763
0.00461991
0.00462188
0.00462275
0.0046222
0.00456466
0.00456223
0.00455994
0.00455873
0.00455904
0.00456076
0.00456323
0.0045655
0.0045667
0.00456634
0.00450531
0.00450277
0.0045002
0.00449867
0.00449877
0.00450042
0.00450304
0.0045056
0.00450708
0.00450697
0.00444633
0.00444368
0.0044409
0.00443905
0.00443891
0.00444049
0.00444311
0.00444594
0.00444774
0.00444788
0.00439006
0.00438741
0.00438452
0.00438242
0.00438196
0.00438334
0.00438603
0.004389
0.0043911
0.00439156
0.00433769
0.00433508
0.00433205
0.0043297
0.00432896
0.00433013
0.00433273
0.00433583
0.00433818
0.00433895
0.00428873
0.00428623
0.00428313
0.0042806
0.00427959
0.00428053
0.00428305
0.00428618
0.00428874
0.00428978
0.00424188
0.00423952
0.00423642
0.00423372
0.00423245
0.00423313
0.0042355
0.00423862
0.00424138
0.00424271
0.00419495
0.00419279
0.00418973
0.00418692
0.00418542
0.00418584
0.00418798
0.00419108
0.00419395
0.00419547
0.00414531
0.00414338
0.00414045
0.00413758
0.00413586
0.004136
0.00413793
0.00414092
0.00414384
0.00414561
0.00409018
0.0040885
0.0040857
0.00408283
0.00408095
0.00408084
0.00408251
0.00408532
0.00408825
0.00409017
0.0040266
0.0040252
0.00402259
0.00401976
0.00401777
0.0040174
0.00401879
0.0040214
0.00402429
0.00402634
0.00395172
0.00395059
0.00394822
0.00394547
0.0039434
0.00394279
0.00394389
0.00394629
0.00394907
0.00395119
0.00386272
0.00386187
0.00385976
0.00385715
0.00385504
0.00385423
0.00385505
0.00385715
0.0038598
0.00386194
0.00375688
0.00375634
0.00375451
0.00375209
0.00374997
0.00374897
0.00374952
0.00375134
0.0037538
0.00375594
0.00363163
0.00363133
0.00362982
0.0036276
0.00362554
0.00362442
0.00362468
0.00362622
0.00362845
0.00363053
0.0034844
0.00348434
0.00348311
0.00348115
0.00347917
0.00347797
0.00347797
0.00347922
0.00348121
0.00348318
0.00331265
0.0033128
0.00331185
0.00331015
0.00330832
0.00330707
0.00330689
0.00330783
0.00330955
0.00331138
0.0031139
0.00311421
0.00311353
0.0031121
0.00311045
0.00310921
0.00310886
0.00310954
0.00311097
0.00311262
0.00288561
0.00288604
0.0028856
0.00288445
0.00288301
0.00288181
0.00288135
0.00288178
0.00288294
0.00288439
0.00262523
0.00262572
0.00262548
0.0026246
0.00262339
0.0026223
0.00262178
0.00262201
0.00262289
0.00262411
0.00233025
0.00233073
0.00233065
0.00233001
0.00232903
0.0023281
0.00232757
0.00232766
0.0023283
0.00232927
0.00199832
0.00199878
0.0019988
0.00199837
0.00199763
0.00199688
0.0019964
0.00199638
0.00199681
0.00199753
0.0016279
0.00162827
0.00162835
0.00162809
0.00162759
0.00162703
0.00162665
0.00162658
0.00162684
0.00162732
0.0012198
0.00122006
0.00122014
0.00122001
0.00121972
0.00121937
0.00121911
0.00121903
0.00121915
0.00121944
0.000781983
0.000782119
0.000782179
0.000782138
0.000782009
0.000781842
0.000781708
0.000781655
0.000781701
0.000781819
0.000312823
0.000312828
0.000312827
0.000312819
0.00031281
0.000312801
0.000312795
0.000312798
0.000312805
0.000312815
0.000312801
0.0003128
0.000312805
0.000312809
0.000312811
0.000312812
0.000312812
0.000312808
0.000312806
0.000312801
0.000781776
0.000781772
0.000781798
0.000781846
0.000781903
0.000781949
0.000781964
0.000781944
0.000781891
0.000781832
0.00121926
0.00121926
0.00121933
0.00121944
0.00121956
0.00121965
0.00121967
0.00121961
0.0012195
0.00121937
0.00162691
0.00162694
0.00162706
0.00162724
0.00162743
0.00162755
0.00162756
0.00162744
0.00162726
0.00162707
0.0019968
0.00199684
0.00199702
0.00199728
0.00199754
0.00199769
0.00199767
0.00199749
0.00199723
0.00199698
0.0023281
0.00232819
0.00232843
0.00232878
0.00232909
0.00232925
0.00232919
0.00232894
0.0023286
0.00232831
0.00262243
0.00262257
0.0026229
0.0026233
0.00262364
0.00262378
0.00262367
0.00262336
0.00262295
0.00262262
0.0028821
0.00288231
0.00288271
0.00288318
0.00288353
0.00288365
0.00288347
0.00288309
0.00288264
0.00288228
0.00310969
0.00310998
0.00311044
0.00311094
0.0031113
0.00311137
0.00311114
0.00311068
0.00311019
0.00310985
0.00330778
0.00330812
0.00330866
0.00330918
0.00330951
0.00330952
0.00330922
0.00330872
0.0033082
0.00330787
0.00347889
0.00347932
0.00347989
0.00348042
0.00348072
0.00348066
0.00348029
0.00347974
0.00347921
0.00347892
0.00362555
0.00362604
0.00362667
0.0036272
0.00362743
0.0036273
0.00362687
0.00362627
0.00362577
0.00362552
0.00375032
0.00375087
0.00375152
0.00375202
0.00375219
0.003752
0.00375149
0.00375089
0.0037504
0.00375022
0.00385573
0.00385635
0.00385699
0.00385746
0.00385757
0.00385729
0.00385673
0.00385613
0.00385568
0.00385557
0.00394442
0.00394509
0.00394573
0.00394614
0.00394619
0.00394582
0.00394523
0.00394464
0.00394424
0.00394421
0.00401911
0.0040198
0.00402044
0.00402078
0.00402074
0.00402033
0.00401971
0.00401911
0.0040188
0.00401883
0.00408259
0.0040833
0.00408389
0.0040842
0.00408407
0.00408358
0.00408295
0.00408241
0.00408214
0.00408226
0.00413774
0.00413846
0.004139
0.00413923
0.00413903
0.00413854
0.0041379
0.00413739
0.00413717
0.00413736
0.00418747
0.00418816
0.00418866
0.00418882
0.00418859
0.00418804
0.00418741
0.00418697
0.00418683
0.00418707
0.00423462
0.0042353
0.00423575
0.00423584
0.0042355
0.00423497
0.00423439
0.00423399
0.00423393
0.00423421
0.00428181
0.00428242
0.00428278
0.0042828
0.00428247
0.00428195
0.00428142
0.00428109
0.00428106
0.00428136
0.00433111
0.00433167
0.00433198
0.00433195
0.0043316
0.0043311
0.00433065
0.00433037
0.00433037
0.00433068
0.00438401
0.00438447
0.0043847
0.00438463
0.00438429
0.00438388
0.0043835
0.00438331
0.00438335
0.00438365
0.0044408
0.00444114
0.00444126
0.00444115
0.00444091
0.00444059
0.00444031
0.00444018
0.00444026
0.00444046
0.00450049
0.00450067
0.00450066
0.00450057
0.0045004
0.00450022
0.00450011
0.00450008
0.00450014
0.00450022
0.00456053
0.00456052
0.00456046
0.00456034
0.00456029
0.00456028
0.00456035
0.00456042
0.00456049
0.00456044
0.00461724
0.00461703
0.00461679
0.00461669
0.00461678
0.004617
0.00461732
0.00461749
0.00461749
0.0046173
0.00466595
0.00466547
0.00466506
0.00466493
0.0046652
0.00466567
0.0046662
0.0046666
0.0046666
0.00466623
0.00470189
0.00470115
0.0047005
0.00470035
0.00470075
0.00470152
0.00470238
0.00470289
0.00470293
0.00470246
0.00472123
0.00472012
0.00471929
0.00471906
0.0047196
0.00472062
0.00472179
0.00472258
0.00472268
0.00472204
0.00472177
0.00472031
0.00471921
0.00471886
0.00471946
0.00472072
0.00472223
0.00472328
0.00472351
0.00472279
0.00470341
0.00470168
0.00470024
0.00469973
0.00470035
0.00470186
0.00470359
0.00470498
0.00470538
0.00470469
0.00466837
0.00466636
0.00466463
0.00466391
0.00466449
0.00466613
0.00466818
0.00466983
0.00467048
0.00466984
0.00462059
0.00461835
0.00461627
0.00461528
0.00461573
0.00461746
0.00461974
0.00462175
0.00462267
0.00462217
0.00456471
0.00456224
0.00455991
0.00455866
0.00455891
0.00456064
0.0045631
0.00456541
0.00456666
0.00456634
0.00450538
0.00450281
0.0045002
0.00449863
0.00449869
0.00450029
0.0045029
0.00450551
0.00450707
0.004507
0.00444637
0.00444376
0.00444098
0.00443906
0.00443888
0.00444033
0.00444303
0.00444582
0.0044477
0.00444792
0.00439021
0.00438756
0.0043846
0.00438242
0.00438193
0.00438327
0.00438592
0.00438892
0.0043911
0.00439163
0.00433783
0.00433522
0.00433216
0.00432977
0.00432896
0.00433006
0.00433266
0.00433579
0.00433822
0.00433902
0.00428889
0.0042864
0.00428329
0.00428069
0.00427959
0.0042805
0.00428298
0.00428615
0.00428878
0.00428988
0.00424203
0.00423971
0.00423661
0.00423384
0.00423251
0.00423313
0.00423547
0.00423862
0.00424144
0.00424278
0.0041951
0.00419299
0.0041899
0.00418708
0.00418551
0.00418584
0.00418795
0.00419108
0.00419398
0.00419559
0.00414548
0.00414359
0.00414064
0.00413774
0.00413597
0.00413605
0.00413793
0.00414092
0.0041439
0.00414569
0.00409036
0.00408871
0.0040859
0.00408301
0.00408108
0.00408087
0.00408251
0.00408534
0.00408829
0.00409028
0.00402675
0.0040254
0.00402281
0.00401995
0.00401789
0.00401745
0.00401879
0.00402142
0.00402432
0.00402641
0.00395186
0.00395077
0.00394842
0.00394566
0.00394352
0.00394286
0.00394391
0.0039463
0.0039491
0.00395126
0.00386284
0.00386205
0.00385997
0.00385734
0.00385517
0.0038543
0.00385505
0.00385717
0.00385983
0.00386201
0.003757
0.00375649
0.0037547
0.00375226
0.00375009
0.00374906
0.00374953
0.00375135
0.00375381
0.00375601
0.00363173
0.00363148
0.00362997
0.00362776
0.00362566
0.00362449
0.0036247
0.00362622
0.00362846
0.00363058
0.00348448
0.00348446
0.00348325
0.00348129
0.00347929
0.00347804
0.00347801
0.00347923
0.00348121
0.00348321
0.00331272
0.0033129
0.00331199
0.00331029
0.00330844
0.00330715
0.00330692
0.00330784
0.00330954
0.0033114
0.00311395
0.00311429
0.00311365
0.00311223
0.00311057
0.00310929
0.00310889
0.00310954
0.00311097
0.00311264
0.00288564
0.0028861
0.00288569
0.00288455
0.00288309
0.00288189
0.00288138
0.00288179
0.00288294
0.00288439
0.00262525
0.00262577
0.00262556
0.00262468
0.00262346
0.00262236
0.00262181
0.00262202
0.00262289
0.00262411
0.00233025
0.00233078
0.00233072
0.00233009
0.00232911
0.00232815
0.00232761
0.00232767
0.0023283
0.00232927
0.00199833
0.00199879
0.00199884
0.00199841
0.00199769
0.00199692
0.00199642
0.00199639
0.0019968
0.00199753
0.0016279
0.00162829
0.00162837
0.00162813
0.00162762
0.00162707
0.00162667
0.00162658
0.00162683
0.00162731
0.0012198
0.00122007
0.00122016
0.00122004
0.00121974
0.00121939
0.00121912
0.00121903
0.00121915
0.00121943
0.000781981
0.000782119
0.000782183
0.000782145
0.000782017
0.000781852
0.000781715
0.000781659
0.000781698
0.000781816
0.000312823
0.00031283
0.000312827
0.00031282
0.000312809
0.0003128
0.000312796
0.000312797
0.000312805
0.000312815
0.000312801
0.000312801
0.000312805
0.000312806
0.00031281
0.000312813
0.000312811
0.000312808
0.000312805
0.000312801
0.000781778
0.000781772
0.000781797
0.000781846
0.000781904
0.00078195
0.000781967
0.000781944
0.000781894
0.000781834
0.00121926
0.00121927
0.00121933
0.00121944
0.00121957
0.00121966
0.00121967
0.00121961
0.0012195
0.00121938
0.00162692
0.00162693
0.00162705
0.00162725
0.00162744
0.00162756
0.00162757
0.00162746
0.00162728
0.00162709
0.0019968
0.00199685
0.00199703
0.00199729
0.00199755
0.00199771
0.00199768
0.00199751
0.00199724
0.00199699
0.00232811
0.0023282
0.00232844
0.00232879
0.00232909
0.00232925
0.0023292
0.00232896
0.00232862
0.00232833
0.00262243
0.00262257
0.0026229
0.00262332
0.00262366
0.0026238
0.00262371
0.00262338
0.00262298
0.00262264
0.00288212
0.00288232
0.00288273
0.00288319
0.00288356
0.00288368
0.00288351
0.00288312
0.00288265
0.0028823
0.00310972
0.00311
0.00311046
0.00311097
0.00311133
0.0031114
0.00311117
0.00311072
0.00311022
0.00310987
0.0033078
0.00330815
0.00330869
0.00330922
0.00330955
0.00330957
0.00330927
0.00330875
0.00330822
0.0033079
0.0034789
0.00347933
0.00347991
0.00348047
0.00348076
0.0034807
0.00348033
0.00347978
0.00347925
0.00347895
0.00362558
0.00362608
0.00362669
0.00362722
0.00362748
0.00362736
0.00362692
0.00362632
0.0036258
0.00362555
0.00375035
0.00375089
0.00375155
0.00375206
0.00375225
0.00375205
0.00375155
0.00375093
0.00375042
0.00375025
0.00385575
0.00385638
0.00385704
0.0038575
0.00385763
0.00385734
0.00385679
0.00385616
0.00385572
0.00385561
0.00394445
0.00394511
0.00394578
0.0039462
0.00394624
0.00394589
0.0039453
0.00394467
0.00394427
0.00394423
0.00401914
0.00401983
0.00402049
0.00402083
0.0040208
0.00402038
0.00401976
0.00401916
0.00401881
0.00401886
0.00408261
0.00408335
0.00408394
0.00408425
0.00408412
0.00408366
0.004083
0.00408244
0.00408216
0.00408229
0.00413776
0.00413848
0.00413905
0.00413928
0.00413909
0.00413857
0.00413793
0.00413741
0.0041372
0.00413739
0.0041875
0.00418819
0.00418872
0.00418888
0.00418861
0.00418807
0.00418743
0.00418697
0.00418686
0.00418707
0.00423462
0.00423533
0.00423578
0.00423587
0.00423553
0.004235
0.00423442
0.00423399
0.00423393
0.00423421
0.00428181
0.00428242
0.00428281
0.00428284
0.00428247
0.00428195
0.00428142
0.00428109
0.00428103
0.00428136
0.00433115
0.00433171
0.00433198
0.00433195
0.0043316
0.00433114
0.00433065
0.00433037
0.0043304
0.00433068
0.00438401
0.00438447
0.0043847
0.00438459
0.00438433
0.00438388
0.0043835
0.00438331
0.00438335
0.00438361
0.00444076
0.0044411
0.00444122
0.00444115
0.00444087
0.00444055
0.00444031
0.00444019
0.00444022
0.00444042
0.00450042
0.00450061
0.00450064
0.00450055
0.00450034
0.0045002
0.00450005
0.00450002
0.00450008
0.00450015
0.00456051
0.00456051
0.00456039
0.00456027
0.00456023
0.00456022
0.00456029
0.00456036
0.00456043
0.00456037
0.00461717
0.00461697
0.00461673
0.00461663
0.00461672
0.00461694
0.00461721
0.00461743
0.00461743
0.00461724
0.00466589
0.00466541
0.004665
0.00466488
0.00466509
0.00466561
0.00466614
0.00466649
0.0046665
0.00466617
0.00470184
0.00470105
0.00470045
0.00470029
0.00470065
0.00470142
0.00470227
0.00470284
0.00470288
0.00470236
0.00472118
0.00472007
0.00471919
0.00471896
0.0047195
0.00472052
0.00472168
0.00472248
0.00472258
0.00472199
0.00472167
0.00472025
0.00471911
0.00471875
0.00471936
0.00472067
0.00472213
0.00472318
0.00472341
0.00472274
0.00470336
0.00470163
0.00470014
0.00469963
0.00470025
0.00470176
0.00470353
0.00470488
0.00470533
0.00470464
0.00466836
0.0046663
0.00466457
0.00466381
0.00466438
0.00466602
0.00466808
0.00466978
0.00467043
0.00466983
0.00462058
0.00461829
0.00461626
0.00461523
0.00461567
0.00461736
0.00461968
0.00462169
0.00462266
0.00462216
0.0045647
0.00456226
0.0045599
0.0045586
0.00455886
0.00456053
0.00456304
0.00456535
0.00456664
0.00456633
0.00450541
0.00450283
0.00450022
0.00449861
0.00449863
0.00450027
0.00450288
0.00450549
0.00450705
0.00450702
0.00444641
0.00444381
0.00444094
0.00443906
0.00443884
0.00444034
0.00444299
0.00444578
0.0044477
0.00444796
0.00439025
0.00438759
0.0043846
0.00438246
0.00438193
0.00438327
0.00438588
0.00438892
0.0043911
0.00439163
0.00433786
0.00433529
0.00433219
0.0043298
0.00432896
0.00433006
0.00433266
0.00433579
0.00433825
0.00433909
0.00428896
0.00428649
0.00428332
0.00428073
0.00427966
0.0042805
0.00428298
0.00428618
0.00428881
0.00428995
0.00424212
0.0042398
0.00423667
0.0042339
0.00423254
0.00423313
0.00423547
0.00423865
0.00424145
0.00424284
0.00419518
0.00419307
0.00418999
0.00418714
0.00418553
0.00418587
0.00418798
0.00419111
0.00419404
0.00419567
0.00414556
0.0041437
0.00414075
0.00413779
0.00413602
0.00413608
0.00413796
0.00414097
0.00414393
0.00414577
0.00409041
0.00408881
0.00408601
0.00408308
0.00408111
0.00408092
0.00408252
0.00408537
0.00408834
0.00409034
0.00402684
0.00402549
0.00402288
0.00402002
0.00401795
0.00401748
0.00401882
0.00402144
0.00402437
0.00402647
0.00395194
0.00395087
0.00394852
0.00394574
0.00394358
0.00394289
0.00394394
0.00394631
0.00394913
0.00395133
0.00386292
0.00386214
0.00386004
0.00385742
0.00385524
0.00385434
0.00385509
0.0038572
0.00385987
0.00386208
0.00375706
0.00375658
0.00375478
0.00375233
0.00375017
0.00374911
0.00374957
0.00375138
0.00375384
0.00375605
0.00363179
0.00363155
0.00363005
0.00362784
0.00362573
0.00362454
0.00362473
0.00362625
0.00362849
0.00363062
0.00348453
0.00348452
0.00348333
0.00348135
0.00347935
0.00347808
0.00347804
0.00347924
0.00348124
0.00348324
0.00331276
0.00331296
0.00331205
0.00331035
0.0033085
0.00330719
0.00330695
0.00330785
0.00330956
0.00331143
0.00311398
0.00311434
0.0031137
0.00311228
0.00311061
0.00310932
0.00310892
0.00310956
0.00311098
0.00311267
0.00288568
0.00288614
0.00288574
0.0028846
0.00288313
0.00288191
0.00288141
0.0028818
0.00288295
0.00288441
0.00262528
0.00262581
0.00262559
0.00262472
0.00262349
0.00262239
0.00262183
0.00262202
0.0026229
0.00262412
0.00233028
0.0023308
0.00233073
0.0023301
0.00232914
0.00232818
0.00232762
0.00232768
0.0023283
0.00232926
0.00199835
0.00199881
0.00199886
0.00199844
0.0019977
0.00199694
0.00199643
0.00199638
0.00199681
0.00199753
0.00162791
0.00162829
0.00162839
0.00162814
0.00162764
0.00162708
0.00162667
0.00162659
0.00162684
0.00162733
0.0012198
0.00122007
0.00122016
0.00122005
0.00121975
0.0012194
0.00121912
0.00121903
0.00121915
0.00121944
0.000781984
0.000782122
0.000782186
0.00078215
0.000782022
0.000781854
0.000781716
0.00078166
0.000781701
0.000781818
0.000312824
0.000312828
0.000312828
0.00031282
0.00031281
0.000312801
0.000312796
0.000312798
0.000312805
0.000312815
0.000312801
0.000312801
0.000312805
0.000312806
0.00031281
0.000312813
0.000312811
0.000312808
0.000312805
0.000312801
0.000781776
0.000781774
0.000781797
0.000781846
0.000781904
0.000781952
0.000781967
0.000781947
0.000781894
0.000781834
0.00121926
0.00121926
0.00121933
0.00121944
0.00121957
0.00121966
0.00121967
0.00121961
0.0012195
0.00121938
0.00162692
0.00162693
0.00162705
0.00162725
0.00162744
0.00162756
0.00162757
0.00162746
0.00162728
0.00162708
0.00199679
0.00199684
0.00199702
0.00199729
0.00199756
0.00199769
0.00199769
0.00199751
0.00199724
0.00199699
0.0023281
0.00232819
0.00232844
0.00232879
0.0023291
0.00232926
0.0023292
0.00232896
0.00232862
0.00232832
0.00262243
0.00262257
0.0026229
0.00262332
0.00262366
0.00262381
0.00262371
0.00262338
0.00262297
0.00262264
0.00288211
0.00288232
0.00288273
0.00288319
0.00288356
0.00288368
0.00288351
0.00288312
0.00288266
0.0028823
0.00310971
0.00310998
0.00311046
0.00311097
0.00311133
0.0031114
0.00311117
0.00311072
0.00311021
0.00310986
0.00330779
0.00330814
0.00330867
0.00330922
0.00330954
0.00330957
0.00330927
0.00330875
0.00330822
0.00330788
0.0034789
0.00347933
0.00347991
0.00348047
0.00348076
0.00348072
0.00348033
0.00347977
0.00347924
0.00347894
0.00362556
0.00362608
0.00362669
0.00362722
0.00362748
0.00362736
0.00362692
0.00362632
0.00362579
0.00362555
0.00375033
0.0037509
0.00375155
0.00375206
0.00375225
0.00375205
0.00375155
0.00375093
0.00375042
0.00375023
0.00385575
0.00385637
0.00385702
0.0038575
0.00385763
0.00385734
0.00385679
0.00385616
0.0038557
0.00385559
0.00394445
0.00394511
0.00394578
0.0039462
0.00394624
0.00394589
0.00394528
0.00394465
0.00394425
0.00394423
0.00401914
0.00401983
0.00402046
0.00402083
0.00402081
0.00402036
0.00401974
0.00401914
0.0040188
0.00401883
0.00408261
0.00408333
0.00408394
0.00408425
0.00408412
0.00408363
0.004083
0.00408244
0.00408214
0.00408226
0.00413776
0.00413848
0.00413905
0.00413928
0.00413909
0.00413857
0.00413793
0.00413739
0.00413717
0.00413736
0.00418747
0.00418819
0.00418871
0.00418885
0.00418861
0.00418807
0.00418743
0.00418697
0.00418683
0.00418704
0.00423462
0.0042353
0.00423575
0.00423587
0.00423553
0.00423497
0.00423439
0.00423399
0.0042339
0.00423418
0.00428178
0.00428242
0.00428278
0.00428284
0.00428247
0.00428195
0.00428142
0.00428106
0.00428103
0.00428133
0.00433111
0.00433167
0.00433195
0.00433195
0.0043316
0.0043311
0.00433061
0.00433033
0.00433037
0.00433065
0.00438398
0.00438447
0.00438466
0.00438459
0.00438429
0.00438384
0.00438346
0.00438328
0.00438331
0.00438357
0.00444076
0.0044411
0.00444122
0.00444111
0.00444087
0.00444055
0.00444027
0.00444015
0.00444018
0.00444038
0.00450043
0.00450061
0.00450064
0.0045005
0.00450034
0.00450016
0.00450005
0.00449998
0.00450004
0.00450015
0.00456047
0.00456046
0.00456039
0.00456028
0.00456018
0.00456022
0.00456029
0.00456036
0.00456038
0.00456033
0.00461717
0.00461697
0.00461669
0.00461659
0.00461667
0.00461689
0.00461721
0.00461739
0.00461743
0.00461724
0.00466584
0.00466537
0.00466495
0.00466483
0.00466504
0.00466557
0.00466609
0.00466644
0.0046665
0.00466613
0.00470184
0.00470105
0.0047004
0.00470025
0.00470065
0.00470142
0.00470222
0.00470279
0.00470283
0.00470236
0.00472113
0.00472007
0.00471919
0.00471896
0.00471945
0.00472052
0.00472163
0.00472243
0.00472258
0.00472194
0.00472167
0.00472025
0.00471911
0.00471875
0.00471931
0.00472062
0.00472208
0.00472313
0.00472341
0.00472269
0.00470331
0.00470158
0.00470015
0.00469963
0.0047002
0.00470171
0.00470348
0.00470488
0.00470528
0.00470459
0.00466832
0.0046663
0.00466457
0.00466381
0.00466434
0.00466598
0.00466803
0.00466978
0.00467043
0.00466979
0.00462053
0.00461829
0.00461622
0.00461519
0.00461562
0.00461731
0.00461964
0.00462165
0.00462261
0.00462211
0.0045647
0.00456222
0.0045599
0.00455856
0.00455881
0.00456053
0.004563
0.00456535
0.0045666
0.00456633
0.00450537
0.00450279
0.00450018
0.00449857
0.00449859
0.00450023
0.00450284
0.00450544
0.00450705
0.00450699
0.00444645
0.00444381
0.00444094
0.00443906
0.0044388
0.0044403
0.00444295
0.00444582
0.0044477
0.00444796
0.00439025
0.00438759
0.00438464
0.00438246
0.00438193
0.00438323
0.00438588
0.00438888
0.0043911
0.00439163
0.00433786
0.00433529
0.00433219
0.00432977
0.00432896
0.00433006
0.00433266
0.00433579
0.00433825
0.00433906
0.00428896
0.00428646
0.00428335
0.00428069
0.00427962
0.00428046
0.00428298
0.00428615
0.00428884
0.00428995
0.00424212
0.00423983
0.00423667
0.00423387
0.00423251
0.00423313
0.00423544
0.00423862
0.00424147
0.00424284
0.00419518
0.00419307
0.00418999
0.00418714
0.00418553
0.00418584
0.00418798
0.00419108
0.00419404
0.00419567
0.00414559
0.0041437
0.00414075
0.00413779
0.004136
0.00413605
0.00413793
0.00414095
0.00414391
0.00414577
0.00409041
0.00408881
0.00408601
0.00408308
0.00408113
0.0040809
0.00408254
0.00408537
0.00408834
0.00409036
0.00402684
0.00402551
0.00402291
0.00402
0.00401795
0.00401748
0.00401879
0.00402144
0.00402437
0.00402647
0.00395194
0.00395087
0.00394852
0.00394574
0.00394358
0.00394289
0.00394393
0.00394632
0.00394913
0.00395133
0.00386292
0.00386215
0.00386004
0.00385742
0.00385522
0.00385434
0.00385509
0.00385718
0.00385987
0.00386208
0.00375708
0.00375658
0.00375478
0.00375233
0.00375017
0.0037491
0.00374957
0.00375138
0.00375384
0.00375605
0.00363179
0.00363156
0.00363007
0.00362784
0.00362573
0.00362454
0.00362473
0.00362623
0.00362849
0.00363062
0.00348453
0.00348453
0.00348333
0.00348135
0.00347935
0.00347808
0.00347804
0.00347924
0.00348122
0.00348324
0.00331276
0.00331296
0.00331205
0.00331035
0.0033085
0.00330719
0.00330695
0.00330785
0.00330956
0.00331143
0.00311399
0.00311434
0.0031137
0.00311228
0.00311061
0.00310932
0.00310892
0.00310955
0.00311098
0.00311267
0.00288568
0.00288614
0.00288574
0.00288459
0.00288313
0.00288191
0.00288141
0.0028818
0.00288295
0.00288441
0.00262529
0.00262581
0.0026256
0.00262472
0.00262349
0.00262239
0.00262183
0.00262202
0.0026229
0.00262412
0.00233028
0.00233081
0.00233073
0.00233011
0.00232914
0.00232818
0.00232762
0.00232768
0.0023283
0.00232926
0.00199835
0.00199881
0.00199886
0.00199844
0.0019977
0.00199694
0.00199643
0.00199638
0.00199681
0.00199753
0.00162791
0.00162829
0.00162839
0.00162815
0.00162764
0.00162708
0.00162667
0.00162659
0.00162684
0.00162732
0.0012198
0.00122007
0.00122016
0.00122005
0.00121975
0.0012194
0.00121912
0.00121903
0.00121915
0.00121944
0.000781984
0.000782122
0.000782188
0.00078215
0.000782022
0.000781856
0.000781716
0.00078166
0.000781698
0.000781818
0.000312824
0.000312828
0.000312828
0.000312821
0.000312811
0.000312801
0.000312796
0.000312798
0.000312805
0.000312815
0.000312801
0.0003128
0.000312805
0.000312806
0.00031281
0.000312813
0.000312811
0.000312808
0.000312805
0.000312801
0.000781776
0.000781772
0.000781797
0.000781846
0.000781904
0.00078195
0.000781967
0.000781944
0.000781892
0.000781834
0.00121926
0.00121926
0.00121933
0.00121944
0.00121957
0.00121966
0.00121967
0.00121961
0.0012195
0.00121938
0.00162691
0.00162693
0.00162706
0.00162724
0.00162744
0.00162756
0.00162757
0.00162746
0.00162727
0.00162708
0.00199679
0.00199684
0.00199702
0.00199729
0.00199755
0.00199771
0.00199768
0.00199751
0.00199724
0.00199699
0.0023281
0.00232819
0.00232843
0.00232879
0.00232909
0.00232925
0.00232922
0.00232896
0.00232861
0.00232832
0.00262243
0.00262256
0.00262289
0.00262331
0.00262365
0.0026238
0.0026237
0.00262338
0.00262297
0.00262263
0.0028821
0.00288231
0.00288272
0.00288318
0.00288355
0.00288367
0.0028835
0.00288311
0.00288265
0.00288229
0.00310969
0.00310997
0.00311046
0.00311096
0.00311133
0.00311141
0.00311117
0.00311071
0.0031102
0.00310985
0.00330778
0.00330812
0.00330867
0.0033092
0.00330955
0.00330956
0.00330926
0.00330874
0.00330821
0.00330788
0.00347889
0.00347931
0.0034799
0.00348045
0.00348076
0.00348071
0.00348032
0.00347975
0.00347923
0.00347892
0.00362555
0.00362606
0.00362668
0.00362722
0.00362748
0.00362735
0.0036269
0.00362631
0.00362577
0.00362554
0.00375032
0.00375088
0.00375153
0.00375205
0.00375223
0.00375203
0.00375153
0.00375091
0.00375042
0.00375022
0.00385573
0.00385635
0.00385701
0.0038575
0.00385761
0.00385733
0.00385677
0.00385615
0.00385568
0.00385557
0.00394442
0.00394509
0.00394576
0.00394618
0.00394622
0.00394587
0.00394525
0.00394464
0.00394424
0.00394421
0.00401911
0.0040198
0.00402046
0.00402081
0.00402079
0.00402038
0.00401973
0.00401914
0.00401878
0.00401883
0.00408259
0.0040833
0.00408391
0.00408422
0.00408409
0.00408363
0.00408299
0.00408241
0.00408214
0.00408224
0.00413774
0.00413846
0.00413903
0.00413926
0.00413906
0.00413854
0.0041379
0.00413738
0.00413717
0.00413736
0.00418747
0.00418816
0.00418871
0.00418885
0.00418859
0.00418804
0.00418743
0.00418694
0.0041868
0.00418704
0.00423462
0.0042353
0.00423575
0.00423584
0.00423553
0.004235
0.00423436
0.00423399
0.00423387
0.00423418
0.00428178
0.00428239
0.00428278
0.0042828
0.00428247
0.00428191
0.00428139
0.00428103
0.004281
0.00428129
0.00433111
0.00433167
0.00433195
0.00433195
0.0043316
0.0043311
0.00433061
0.00433033
0.00433037
0.00433061
0.00438398
0.00438447
0.00438466
0.00438459
0.00438429
0.00438384
0.00438346
0.00438328
0.00438327
0.00438357
0.00444076
0.0044411
0.00444122
0.00444111
0.00444083
0.00444051
0.00444027
0.00444015
0.00444018
0.00444038
0.00450042
0.0045006
0.00450064
0.0045005
0.00450033
0.00450016
0.00450001
0.00449997
0.00450003
0.00450015
0.00456046
0.00456046
0.00456039
0.00456027
0.00456018
0.00456021
0.00456028
0.00456035
0.00456038