/*--------------------------------*- C++ -*----------------------------------*\
| =========                 |                                                 |
| \\      /  F ield         | OpenFOAM: The Open Source CFD Toolbox           |
|  \\    /   O peration     | Version:  2.4.0                                 |
|   \\  /    A nd           | Web:      www.OpenFOAM.org                      |
|    \\/     M anipulation  |                                                 |
\*---------------------------------------------------------------------------*/
FoamFile
{
    version     2.0;
    format      ascii;
    class       volScalarField;
    location    "600";
    object      p;
}
// * * * * * * * * * * * * * * * * * * * * * * * * * * * * * * * * * * * * * //

dimensions      [0 2 -2 0 0 0 0];

internalField   nonuniform List<scalar> 
6000
(
1.3163e-07
1.26692e-08
-9.96344e-08
-1.63223e-07
-1.52555e-07
-7.49711e-08
4.31376e-08
1.51763e-07
2.1221e-07
2.08555e-07
1.31367e-07
1.24415e-08
-9.97144e-08
-1.63145e-07
-1.52355e-07
-7.47169e-08
4.33776e-08
1.51855e-07
2.12138e-07
2.08346e-07
1.3118e-07
1.21908e-08
-9.99215e-08
-1.6323e-07
-1.52305e-07
-7.4556e-08
4.36058e-08
1.52091e-07
2.12243e-07
2.08289e-07
1.31044e-07
1.19303e-08
-1.0019e-07
-1.6341e-07
-1.52346e-07
-7.44529e-08
4.38419e-08
1.52393e-07
2.12448e-07
2.08326e-07
1.30922e-07
1.16587e-08
-1.00484e-07
-1.63625e-07
-1.52418e-07
-7.43628e-08
4.40904e-08
1.52721e-07
2.12688e-07
2.08395e-07
1.30807e-07
1.13792e-08
-1.00798e-07
-1.63864e-07
-1.52509e-07
-7.42806e-08
4.43456e-08
1.53067e-07
2.12953e-07
2.08486e-07
1.30702e-07
1.10944e-08
-1.0113e-07
-1.64128e-07
-1.52621e-07
-7.42083e-08
4.46049e-08
1.53431e-07
2.13243e-07
2.08599e-07
1.30606e-07
1.08047e-08
-1.01478e-07
-1.64414e-07
-1.52752e-07
-7.41448e-08
4.48685e-08
1.53811e-07
2.13555e-07
2.08731e-07
1.30518e-07
1.05097e-08
-1.01842e-07
-1.64719e-07
-1.529e-07
-7.40884e-08
4.51369e-08
1.54206e-07
2.13887e-07
2.08882e-07
1.30436e-07
1.02095e-08
-1.0222e-07
-1.65044e-07
-1.53063e-07
-7.40382e-08
4.54102e-08
1.54614e-07
2.14237e-07
2.09049e-07
1.30361e-07
9.90411e-09
-1.02612e-07
-1.65388e-07
-1.53241e-07
-7.39938e-08
4.56885e-08
1.55036e-07
2.14605e-07
2.09232e-07
1.30291e-07
9.59368e-09
-1.03018e-07
-1.65749e-07
-1.53434e-07
-7.3955e-08
4.59714e-08
1.55472e-07
2.1499e-07
2.09431e-07
1.30228e-07
9.27897e-09
-1.03437e-07
-1.66127e-07
-1.53641e-07
-7.39221e-08
4.62585e-08
1.55919e-07
2.15392e-07
2.09644e-07
1.30172e-07
8.96019e-09
-1.03868e-07
-1.66522e-07
-1.53862e-07
-7.38951e-08
4.65493e-08
1.56378e-07
2.15811e-07
2.09873e-07
1.30122e-07
8.6371e-09
-1.04313e-07
-1.66935e-07
-1.54098e-07
-7.38741e-08
4.68442e-08
1.5685e-07
2.16247e-07
2.10117e-07
1.30079e-07
8.31021e-09
-1.0477e-07
-1.67365e-07
-1.54348e-07
-7.38595e-08
4.71427e-08
1.57334e-07
2.16699e-07
2.10377e-07
1.30044e-07
7.98024e-09
-1.05239e-07
-1.67812e-07
-1.54612e-07
-7.38517e-08
4.7444e-08
1.57829e-07
2.17167e-07
2.10653e-07
1.30016e-07
7.64722e-09
-1.05721e-07
-1.68276e-07
-1.54892e-07
-7.38508e-08
4.77481e-08
1.58335e-07
2.17652e-07
2.10944e-07
1.29996e-07
7.31087e-09
-1.06215e-07
-1.68758e-07
-1.55186e-07
-7.38568e-08
4.80552e-08
1.58853e-07
2.18154e-07
2.11251e-07
1.29984e-07
6.9715e-09
-1.06721e-07
-1.69256e-07
-1.55495e-07
-7.38699e-08
4.8365e-08
1.59382e-07
2.18672e-07
2.11574e-07
1.29979e-07
6.62962e-09
-1.07238e-07
-1.69771e-07
-1.55819e-07
-7.38902e-08
4.86771e-08
1.59921e-07
2.19206e-07
2.11913e-07
1.29983e-07
6.28535e-09
-1.07767e-07
-1.70303e-07
-1.56157e-07
-7.39177e-08
4.89912e-08
1.60472e-07
2.19756e-07
2.12268e-07
1.29994e-07
5.93889e-09
-1.08307e-07
-1.70851e-07
-1.56509e-07
-7.39524e-08
4.93073e-08
1.61032e-07
2.20322e-07
2.12638e-07
1.30013e-07
5.59038e-09
-1.08858e-07
-1.71415e-07
-1.56875e-07
-7.39943e-08
4.96252e-08
1.61602e-07
2.20902e-07
2.13023e-07
1.3004e-07
5.2396e-09
-1.0942e-07
-1.71994e-07
-1.57255e-07
-7.4043e-08
4.9945e-08
1.62182e-07
2.21498e-07
2.13423e-07
1.30074e-07
4.88662e-09
-1.09992e-07
-1.72589e-07
-1.57648e-07
-7.40984e-08
5.02668e-08
1.62772e-07
2.22108e-07
2.13838e-07
1.30116e-07
4.53192e-09
-1.10574e-07
-1.73198e-07
-1.58055e-07
-7.41605e-08
5.05901e-08
1.6337e-07
2.22732e-07
2.14267e-07
1.30165e-07
4.17527e-09
-1.11166e-07
-1.73822e-07
-1.58474e-07
-7.42289e-08
5.0915e-08
1.63978e-07
2.23369e-07
2.14709e-07
1.3022e-07
3.81552e-09
-1.11769e-07
-1.7446e-07
-1.58904e-07
-7.43023e-08
5.12428e-08
1.64595e-07
2.2402e-07
2.15164e-07
1.3028e-07
3.45247e-09
-1.12382e-07
-1.75111e-07
-1.59346e-07
-7.43804e-08
5.15737e-08
1.65221e-07
2.24685e-07
2.15632e-07
1.30347e-07
3.08757e-09
-1.13005e-07
-1.75777e-07
-1.59799e-07
-7.4464e-08
5.19063e-08
1.65856e-07
2.25361e-07
2.16113e-07
1.3042e-07
2.72115e-09
-1.13636e-07
-1.76454e-07
-1.60262e-07
-7.45529e-08
5.22402e-08
1.66497e-07
2.26049e-07
2.16605e-07
1.30497e-07
2.35163e-09
-1.14276e-07
-1.77143e-07
-1.60735e-07
-7.46453e-08
5.2577e-08
1.67147e-07
2.26748e-07
2.17107e-07
1.30578e-07
1.97852e-09
-1.14925e-07
-1.77844e-07
-1.61216e-07
-7.47404e-08
5.29172e-08
1.67805e-07
2.27458e-07
2.17619e-07
1.30663e-07
1.60279e-09
-1.15582e-07
-1.78555e-07
-1.61705e-07
-7.48388e-08
5.32599e-08
1.6847e-07
2.28177e-07
2.1814e-07
1.30752e-07
1.22493e-09
-1.16247e-07
-1.79277e-07
-1.62203e-07
-7.49404e-08
5.36047e-08
1.69142e-07
2.28906e-07
2.18671e-07
1.30845e-07
8.4462e-10
-1.16919e-07
-1.80008e-07
-1.62707e-07
-7.50446e-08
5.39517e-08
1.6982e-07
2.29643e-07
2.1921e-07
1.3094e-07
4.61823e-10
-1.17598e-07
-1.80748e-07
-1.63218e-07
-7.51508e-08
5.43011e-08
1.70503e-07
2.30388e-07
2.19756e-07
1.31039e-07
7.70736e-11
-1.18283e-07
-1.81495e-07
-1.63735e-07
-7.52591e-08
5.46523e-08
1.71191e-07
2.3114e-07
2.20308e-07
1.31141e-07
-3.09337e-10
-1.18974e-07
-1.8225e-07
-1.64256e-07
-7.53693e-08
5.50051e-08
1.71884e-07
2.31898e-07
2.20868e-07
1.31245e-07
-6.97174e-10
-1.19669e-07
-1.83011e-07
-1.64783e-07
-7.54812e-08
5.53591e-08
1.72581e-07
2.32662e-07
2.21432e-07
1.31352e-07
-1.08594e-09
-1.20368e-07
-1.83778e-07
-1.65313e-07
-7.55948e-08
5.57139e-08
1.7328e-07
2.3343e-07
2.22002e-07
1.31461e-07
-1.47555e-09
-1.2107e-07
-1.84549e-07
-1.65847e-07
-7.57095e-08
5.60694e-08
1.73982e-07
2.34202e-07
2.22576e-07
1.31572e-07
-1.86573e-09
-1.21776e-07
-1.85324e-07
-1.66383e-07
-7.58251e-08
5.64254e-08
1.74685e-07
2.34976e-07
2.23153e-07
1.31686e-07
-2.25511e-09
-1.22482e-07
-1.86101e-07
-1.66922e-07
-7.59425e-08
5.67804e-08
1.75389e-07
2.35753e-07
2.23734e-07
1.31804e-07
-2.64227e-09
-1.23189e-07
-1.86882e-07
-1.67464e-07
-7.60628e-08
5.71332e-08
1.76092e-07
2.36531e-07
2.24319e-07
1.31926e-07
-3.02664e-09
-1.23895e-07
-1.87664e-07
-1.68008e-07
-7.61859e-08
5.74832e-08
1.76793e-07
2.3731e-07
2.24907e-07
1.32051e-07
-3.40766e-09
-1.246e-07
-1.88446e-07
-1.68554e-07
-7.63118e-08
5.78298e-08
1.77492e-07
2.38089e-07
2.25498e-07
1.32181e-07
-3.7841e-09
-1.25302e-07
-1.8923e-07
-1.69103e-07
-7.64416e-08
5.8172e-08
1.78187e-07
2.38867e-07
2.26091e-07
1.32317e-07
-4.15525e-09
-1.26001e-07
-1.90013e-07
-1.69654e-07
-7.65759e-08
5.85089e-08
1.78879e-07
2.39645e-07
2.26688e-07
1.32457e-07
-4.52124e-09
-1.26696e-07
-1.90796e-07
-1.70206e-07
-7.67135e-08
5.88408e-08
1.79566e-07
2.40421e-07
2.27287e-07
1.32601e-07
-4.88255e-09
-1.27388e-07
-1.91576e-07
-1.70758e-07
-7.68534e-08
5.91683e-08
1.80248e-07
2.41193e-07
2.27886e-07
1.32746e-07
-5.24011e-09
-1.28075e-07
-1.92354e-07
-1.71309e-07
-7.6994e-08
5.94922e-08
1.80925e-07
2.41962e-07
2.28484e-07
1.32889e-07
-5.59634e-09
-1.28759e-07
-1.93126e-07
-1.71854e-07
-7.71316e-08
5.98149e-08
1.81597e-07
2.42725e-07
2.29078e-07
1.33024e-07
-5.95622e-09
-1.29439e-07
-1.93889e-07
-1.72387e-07
-7.72595e-08
6.0141e-08
1.82266e-07
2.43478e-07
2.2966e-07
1.33144e-07
-6.32314e-09
-1.30117e-07
-1.9464e-07
-1.72903e-07
-7.73721e-08
6.04736e-08
1.8293e-07
2.44218e-07
2.30225e-07
1.33253e-07
-6.69167e-09
-1.30785e-07
-1.95374e-07
-1.73399e-07
-7.74713e-08
6.0808e-08
1.83584e-07
2.44941e-07
2.30773e-07
1.33319e-07
-7.07508e-09
-1.31438e-07
-1.96069e-07
-1.73845e-07
-7.75277e-08
6.11584e-08
1.8422e-07
2.45628e-07
2.31269e-07
1.33137e-07
-7.5997e-09
-1.32084e-07
-1.966e-07
-1.7405e-07
-7.73562e-08
6.16397e-08
1.84846e-07
2.46175e-07
2.31523e-07
1.32493e-07
-8.37966e-09
-1.32628e-07
-1.9675e-07
-1.73783e-07
-7.67762e-08
6.23368e-08
1.85435e-07
2.46389e-07
2.31295e-07
1.31811e-07
1.30246e-08
-9.91661e-08
-1.62082e-07
-1.52318e-07
-7.66611e-08
4.23212e-08
1.52909e-07
2.12153e-07
2.07648e-07
1.31535e-07
1.27868e-08
-9.9253e-08
-1.62019e-07
-1.52105e-07
-7.63678e-08
4.25468e-08
1.52979e-07
2.12089e-07
2.0745e-07
1.31339e-07
1.25333e-08
-9.94649e-08
-1.62127e-07
-1.52062e-07
-7.61715e-08
4.27983e-08
1.53186e-07
2.12198e-07
2.07412e-07
1.312e-07
1.22712e-08
-9.97363e-08
-1.62333e-07
-1.5212e-07
-7.60352e-08
4.30591e-08
1.53459e-07
2.12405e-07
2.07473e-07
1.31073e-07
1.19982e-08
-1.00033e-07
-1.62575e-07
-1.5221e-07
-7.59123e-08
4.33296e-08
1.53758e-07
2.12648e-07
2.07565e-07
1.30955e-07
1.17179e-08
-1.00349e-07
-1.62842e-07
-1.5232e-07
-7.5798e-08
4.36066e-08
1.54076e-07
2.12916e-07
2.07679e-07
1.30847e-07
1.14331e-08
-1.00683e-07
-1.63132e-07
-1.52452e-07
-7.56946e-08
4.38877e-08
1.54413e-07
2.13209e-07
2.07815e-07
1.30749e-07
1.1144e-08
-1.01033e-07
-1.63446e-07
-1.52603e-07
-7.5601e-08
4.4173e-08
1.54766e-07
2.13524e-07
2.07971e-07
1.30658e-07
1.08501e-08
-1.01397e-07
-1.63779e-07
-1.52772e-07
-7.55154e-08
4.44628e-08
1.55134e-07
2.13858e-07
2.08145e-07
1.30574e-07
1.05517e-08
-1.01776e-07
-1.6413e-07
-1.52956e-07
-7.54369e-08
4.47572e-08
1.55517e-07
2.14211e-07
2.08334e-07
1.30496e-07
1.02484e-08
-1.02168e-07
-1.645e-07
-1.53156e-07
-7.53651e-08
4.50562e-08
1.55914e-07
2.14583e-07
2.08539e-07
1.30425e-07
9.94074e-09
-1.02574e-07
-1.64888e-07
-1.5337e-07
-7.52999e-08
4.53596e-08
1.56325e-07
2.14971e-07
2.0876e-07
1.3036e-07
9.62927e-09
-1.02992e-07
-1.65292e-07
-1.53599e-07
-7.52415e-08
4.56667e-08
1.56749e-07
2.15377e-07
2.08995e-07
1.30302e-07
9.31421e-09
-1.03423e-07
-1.65713e-07
-1.53842e-07
-7.519e-08
4.59774e-08
1.57185e-07
2.15799e-07
2.09244e-07
1.30251e-07
8.99531e-09
-1.03867e-07
-1.66151e-07
-1.541e-07
-7.51456e-08
4.62919e-08
1.57635e-07
2.16238e-07
2.09509e-07
1.30207e-07
8.67308e-09
-1.04323e-07
-1.66607e-07
-1.54372e-07
-7.51085e-08
4.66097e-08
1.58097e-07
2.16694e-07
2.09789e-07
1.3017e-07
8.34826e-09
-1.04791e-07
-1.67079e-07
-1.5466e-07
-7.50791e-08
4.69301e-08
1.58571e-07
2.17166e-07
2.10084e-07
1.30141e-07
8.02085e-09
-1.0527e-07
-1.67567e-07
-1.54962e-07
-7.50577e-08
4.7253e-08
1.59057e-07
2.17654e-07
2.10395e-07
1.3012e-07
7.69061e-09
-1.05762e-07
-1.68073e-07
-1.55279e-07
-7.50441e-08
4.75788e-08
1.59556e-07
2.1816e-07
2.10721e-07
1.30106e-07
7.35786e-09
-1.06265e-07
-1.68596e-07
-1.55612e-07
-7.50386e-08
4.79071e-08
1.60067e-07
2.18681e-07
2.11062e-07
1.30101e-07
7.02312e-09
-1.0678e-07
-1.69135e-07
-1.55959e-07
-7.50414e-08
4.82375e-08
1.60589e-07
2.19219e-07
2.11419e-07
1.30104e-07
6.68655e-09
-1.07306e-07
-1.6969e-07
-1.56322e-07
-7.50524e-08
4.85698e-08
1.61122e-07
2.19773e-07
2.11791e-07
1.30115e-07
6.34838e-09
-1.07842e-07
-1.70261e-07
-1.56698e-07
-7.50717e-08
4.89037e-08
1.61666e-07
2.20343e-07
2.12178e-07
1.30134e-07
6.00877e-09
-1.08389e-07
-1.70847e-07
-1.5709e-07
-7.50992e-08
4.92392e-08
1.62221e-07
2.20927e-07
2.12579e-07
1.3016e-07
5.66754e-09
-1.08946e-07
-1.71449e-07
-1.57495e-07
-7.51346e-08
4.95765e-08
1.62786e-07
2.21526e-07
2.12995e-07
1.30194e-07
5.32479e-09
-1.09513e-07
-1.72066e-07
-1.57914e-07
-7.51777e-08
4.99155e-08
1.63362e-07
2.2214e-07
2.13425e-07
1.30236e-07
4.98103e-09
-1.1009e-07
-1.72698e-07
-1.58346e-07
-7.52287e-08
5.02557e-08
1.63948e-07
2.22768e-07
2.13869e-07
1.30285e-07
4.63608e-09
-1.10677e-07
-1.73343e-07
-1.58791e-07
-7.52871e-08
5.05974e-08
1.64543e-07
2.2341e-07
2.14326e-07
1.3034e-07
4.28886e-09
-1.11273e-07
-1.74002e-07
-1.59248e-07
-7.53517e-08
5.09416e-08
1.65148e-07
2.24065e-07
2.14796e-07
1.30401e-07
3.93925e-09
-1.11879e-07
-1.74675e-07
-1.59717e-07
-7.54221e-08
5.12885e-08
1.65763e-07
2.24733e-07
2.15277e-07
1.30469e-07
3.5887e-09
-1.12494e-07
-1.75361e-07
-1.60197e-07
-7.54992e-08
5.16369e-08
1.66388e-07
2.25413e-07
2.15771e-07
1.30542e-07
3.23752e-09
-1.13116e-07
-1.76059e-07
-1.60688e-07
-7.55827e-08
5.19862e-08
1.6702e-07
2.26105e-07
2.16275e-07
1.30621e-07
2.88426e-09
-1.13748e-07
-1.76768e-07
-1.61189e-07
-7.5671e-08
5.23382e-08
1.6766e-07
2.26808e-07
2.1679e-07
1.30703e-07
2.52851e-09
-1.14388e-07
-1.77488e-07
-1.61698e-07
-7.57632e-08
5.26932e-08
1.6831e-07
2.27521e-07
2.17314e-07
1.30789e-07
2.17125e-09
-1.15035e-07
-1.78219e-07
-1.62216e-07
-7.58598e-08
5.30503e-08
1.68967e-07
2.28244e-07
2.17847e-07
1.3088e-07
1.813e-09
-1.1569e-07
-1.78959e-07
-1.62743e-07
-7.59609e-08
5.34091e-08
1.69631e-07
2.28976e-07
2.18389e-07
1.30975e-07
1.4535e-09
-1.16351e-07
-1.79708e-07
-1.63277e-07
-7.60656e-08
5.37699e-08
1.70302e-07
2.29717e-07
2.18938e-07
1.31073e-07
1.09285e-09
-1.17018e-07
-1.80466e-07
-1.63817e-07
-7.61735e-08
5.41327e-08
1.70979e-07
2.30465e-07
2.19494e-07
1.31174e-07
7.31594e-10
-1.17691e-07
-1.81232e-07
-1.64364e-07
-7.62847e-08
5.4497e-08
1.71662e-07
2.31221e-07
2.20057e-07
1.31278e-07
3.67954e-10
-1.18369e-07
-1.82004e-07
-1.64916e-07
-7.63989e-08
5.48626e-08
1.7235e-07
2.31982e-07
2.20626e-07
1.31385e-07
-1.06354e-14
-1.19051e-07
-1.82782e-07
-1.65473e-07
-7.65159e-08
5.5229e-08
1.73042e-07
2.32749e-07
2.212e-07
1.31495e-07
-3.72065e-10
-1.19738e-07
-1.83565e-07
-1.66035e-07
-7.66357e-08
5.5596e-08
1.73738e-07
2.33521e-07
2.21778e-07
1.31606e-07
-7.48106e-10
-1.20427e-07
-1.84352e-07
-1.666e-07
-7.67576e-08
5.59634e-08
1.74436e-07
2.34296e-07
2.2236e-07
1.3172e-07
-1.1258e-09
-1.21119e-07
-1.85143e-07
-1.67167e-07
-7.68814e-08
5.6331e-08
1.75136e-07
2.35074e-07
2.22946e-07
1.31837e-07
-1.50166e-09
-1.21811e-07
-1.85936e-07
-1.67738e-07
-7.70081e-08
5.66974e-08
1.75838e-07
2.35854e-07
2.23534e-07
1.31957e-07
-1.87418e-09
-1.22503e-07
-1.86732e-07
-1.68312e-07
-7.71387e-08
5.70612e-08
1.76539e-07
2.36636e-07
2.24126e-07
1.32082e-07
-2.24291e-09
-1.23194e-07
-1.87529e-07
-1.68889e-07
-7.72731e-08
5.74218e-08
1.77239e-07
2.37419e-07
2.24721e-07
1.3221e-07
-2.60729e-09
-1.23883e-07
-1.88325e-07
-1.69467e-07
-7.74112e-08
5.77789e-08
1.77936e-07
2.382e-07
2.25318e-07
1.32344e-07
-2.96607e-09
-1.24569e-07
-1.89123e-07
-1.70048e-07
-7.75544e-08
5.81311e-08
1.78631e-07
2.38982e-07
2.25918e-07
1.32482e-07
-3.3185e-09
-1.25251e-07
-1.8992e-07
-1.70632e-07
-7.77028e-08
5.84777e-08
1.79322e-07
2.39763e-07
2.26521e-07
1.32626e-07
-3.66476e-09
-1.25929e-07
-1.90715e-07
-1.71218e-07
-7.78556e-08
5.88189e-08
1.80009e-07
2.40542e-07
2.27125e-07
1.32772e-07
-4.00535e-09
-1.26603e-07
-1.91508e-07
-1.71803e-07
-7.80117e-08
5.91553e-08
1.80692e-07
2.41317e-07
2.27729e-07
1.32921e-07
-4.34125e-09
-1.27272e-07
-1.92298e-07
-1.72386e-07
-7.81694e-08
5.94878e-08
1.8137e-07
2.42089e-07
2.28332e-07
1.33068e-07
-4.67495e-09
-1.27937e-07
-1.93082e-07
-1.72965e-07
-7.8325e-08
5.98188e-08
1.82043e-07
2.42855e-07
2.2893e-07
1.33205e-07
-5.01157e-09
-1.286e-07
-1.93857e-07
-1.73531e-07
-7.84714e-08
6.01531e-08
1.82713e-07
2.43612e-07
2.29517e-07
1.33329e-07
-5.35454e-09
-1.29259e-07
-1.94619e-07
-1.7408e-07
-7.86033e-08
6.04938e-08
1.8338e-07
2.44355e-07
2.30086e-07
1.33441e-07
-5.69847e-09
-1.2991e-07
-1.95365e-07
-1.74609e-07
-7.87223e-08
6.08362e-08
1.84037e-07
2.45082e-07
2.30637e-07
1.3351e-07
-6.0574e-09
-1.30547e-07
-1.96074e-07
-1.75087e-07
-7.87978e-08
6.11951e-08
1.84677e-07
2.45773e-07
2.31137e-07
1.33332e-07
-6.56198e-09
-1.31171e-07
-1.96624e-07
-1.75323e-07
-7.86389e-08
6.16898e-08
1.85308e-07
2.46325e-07
2.31395e-07
1.32693e-07
-7.33081e-09
-1.31737e-07
-1.96798e-07
-1.75081e-07
-7.80566e-08
6.24088e-08
1.85913e-07
2.46545e-07
2.3117e-07
1.32538e-07
1.32903e-08
-9.9156e-08
-1.61789e-07
-1.52992e-07
-7.73477e-08
4.3424e-08
1.52972e-07
2.11013e-07
2.07684e-07
1.32253e-07
1.30479e-08
-9.92435e-08
-1.61726e-07
-1.5278e-07
-7.70562e-08
4.36482e-08
1.53057e-07
2.10966e-07
2.07475e-07
1.32054e-07
1.27926e-08
-9.94562e-08
-1.61835e-07
-1.52737e-07
-7.68618e-08
4.38749e-08
1.53274e-07
2.11099e-07
2.07432e-07
1.31912e-07
1.25287e-08
-9.97284e-08
-1.62041e-07
-1.52797e-07
-7.67274e-08
4.41103e-08
1.53554e-07
2.11333e-07
2.07489e-07
1.31784e-07
1.22536e-08
-1.00026e-07
-1.62281e-07
-1.52888e-07
-7.66069e-08
4.43571e-08
1.53859e-07
2.11603e-07
2.0758e-07
1.31665e-07
1.19713e-08
-1.00343e-07
-1.62547e-07
-1.53e-07
-7.64954e-08
4.46104e-08
1.54183e-07
2.11899e-07
2.07692e-07
1.31557e-07
1.16846e-08
-1.00677e-07
-1.62836e-07
-1.53135e-07
-7.63953e-08
4.48677e-08
1.54526e-07
2.12218e-07
2.07827e-07
1.31458e-07
1.13935e-08
-1.01027e-07
-1.63147e-07
-1.53289e-07
-7.63055e-08
4.51293e-08
1.54884e-07
2.12559e-07
2.07981e-07
1.31368e-07
1.10977e-08
-1.01392e-07
-1.63478e-07
-1.53461e-07
-7.62242e-08
4.53958e-08
1.55258e-07
2.1292e-07
2.08153e-07
1.31284e-07
1.07972e-08
-1.01771e-07
-1.63827e-07
-1.5365e-07
-7.61504e-08
4.56672e-08
1.55646e-07
2.13299e-07
2.08342e-07
1.31208e-07
1.04919e-08
-1.02164e-07
-1.64193e-07
-1.53854e-07
-7.60839e-08
4.59437e-08
1.56048e-07
2.13696e-07
2.08546e-07
1.31138e-07
1.0182e-08
-1.0257e-07
-1.64577e-07
-1.54073e-07
-7.60245e-08
4.62251e-08
1.56464e-07
2.1411e-07
2.08766e-07
1.31076e-07
9.86829e-09
-1.02989e-07
-1.64978e-07
-1.54307e-07
-7.59723e-08
4.65107e-08
1.56894e-07
2.1454e-07
2.09e-07
1.3102e-07
9.5509e-09
-1.03421e-07
-1.65395e-07
-1.54556e-07
-7.59276e-08
4.68005e-08
1.57335e-07
2.14986e-07
2.09249e-07
1.30972e-07
9.22957e-09
-1.03865e-07
-1.65829e-07
-1.54821e-07
-7.58904e-08
4.70946e-08
1.5779e-07
2.15449e-07
2.09514e-07
1.30932e-07
8.90481e-09
-1.04322e-07
-1.6628e-07
-1.55101e-07
-7.5861e-08
4.73926e-08
1.58258e-07
2.15928e-07
2.09793e-07
1.30899e-07
8.57735e-09
-1.0479e-07
-1.66747e-07
-1.55396e-07
-7.58399e-08
4.76938e-08
1.58738e-07
2.16423e-07
2.10088e-07
1.30875e-07
8.24719e-09
-1.0527e-07
-1.67231e-07
-1.55707e-07
-7.58271e-08
4.79981e-08
1.5923e-07
2.16934e-07
2.10399e-07
1.30859e-07
7.91406e-09
-1.05762e-07
-1.67731e-07
-1.56033e-07
-7.58227e-08
4.83059e-08
1.59734e-07
2.17462e-07
2.10725e-07
1.30851e-07
7.57829e-09
-1.06267e-07
-1.68248e-07
-1.56376e-07
-7.58268e-08
4.86169e-08
1.6025e-07
2.18006e-07
2.11067e-07
1.30852e-07
7.24039e-09
-1.06782e-07
-1.68781e-07
-1.56734e-07
-7.58396e-08
4.89305e-08
1.60778e-07
2.18565e-07
2.11424e-07
1.30862e-07
6.90051e-09
-1.07309e-07
-1.6933e-07
-1.57107e-07
-7.58611e-08
4.92467e-08
1.61317e-07
2.19139e-07
2.11797e-07
1.3088e-07
6.55888e-09
-1.07846e-07
-1.69894e-07
-1.57496e-07
-7.58914e-08
4.95651e-08
1.61867e-07
2.19729e-07
2.12184e-07
1.30906e-07
6.21565e-09
-1.08394e-07
-1.70474e-07
-1.57899e-07
-7.59303e-08
4.98857e-08
1.62427e-07
2.20333e-07
2.12587e-07
1.30941e-07
5.87063e-09
-1.08952e-07
-1.71068e-07
-1.58317e-07
-7.59776e-08
5.02087e-08
1.62998e-07
2.20952e-07
2.13004e-07
1.30984e-07
5.52392e-09
-1.0952e-07
-1.71677e-07
-1.5875e-07
-7.60331e-08
5.0534e-08
1.6358e-07
2.21585e-07
2.13436e-07
1.31036e-07
5.176e-09
-1.10098e-07
-1.72301e-07
-1.59197e-07
-7.60969e-08
5.08612e-08
1.64171e-07
2.22231e-07
2.13881e-07
1.31095e-07
4.82668e-09
-1.10685e-07
-1.72938e-07
-1.59657e-07
-7.61686e-08
5.11903e-08
1.64771e-07
2.2289e-07
2.1434e-07
1.31161e-07
4.47489e-09
-1.11282e-07
-1.73588e-07
-1.6013e-07
-7.6247e-08
5.15226e-08
1.65381e-07
2.23563e-07
2.14811e-07
1.31233e-07
4.12044e-09
-1.11889e-07
-1.74252e-07
-1.60616e-07
-7.63317e-08
5.18583e-08
1.66002e-07
2.24248e-07
2.15295e-07
1.31312e-07
3.76475e-09
-1.12505e-07
-1.74928e-07
-1.61114e-07
-7.64235e-08
5.21959e-08
1.66631e-07
2.24944e-07
2.15791e-07
1.31398e-07
3.4081e-09
-1.13129e-07
-1.75616e-07
-1.61623e-07
-7.65222e-08
5.25351e-08
1.67268e-07
2.25652e-07
2.16298e-07
1.3149e-07
3.04903e-09
-1.13761e-07
-1.76314e-07
-1.62142e-07
-7.66261e-08
5.28775e-08
1.67914e-07
2.2637e-07
2.16815e-07
1.31586e-07
2.68706e-09
-1.14401e-07
-1.77024e-07
-1.62672e-07
-7.67344e-08
5.32235e-08
1.68568e-07
2.27098e-07
2.17342e-07
1.31687e-07
2.32309e-09
-1.1505e-07
-1.77743e-07
-1.6321e-07
-7.68477e-08
5.35723e-08
1.6923e-07
2.27836e-07
2.17878e-07
1.31793e-07
1.95761e-09
-1.15705e-07
-1.78472e-07
-1.63758e-07
-7.69658e-08
5.39233e-08
1.69898e-07
2.28582e-07
2.18423e-07
1.31903e-07
1.59028e-09
-1.16367e-07
-1.79209e-07
-1.64313e-07
-7.7088e-08
5.42769e-08
1.70574e-07
2.29336e-07
2.18975e-07
1.32017e-07
1.22105e-09
-1.17036e-07
-1.79955e-07
-1.64876e-07
-7.72138e-08
5.46331e-08
1.71256e-07
2.30097e-07
2.19535e-07
1.32134e-07
8.50454e-10
-1.1771e-07
-1.80707e-07
-1.65446e-07
-7.73434e-08
5.49915e-08
1.71943e-07
2.30865e-07
2.20101e-07
1.32256e-07
4.78743e-10
-1.18388e-07
-1.81467e-07
-1.66022e-07
-7.74765e-08
5.53516e-08
1.72636e-07
2.31639e-07
2.20674e-07
1.32381e-07
1.06143e-10
-1.19072e-07
-1.82231e-07
-1.66604e-07
-7.76127e-08
5.57133e-08
1.73332e-07
2.32417e-07
2.21251e-07
1.32509e-07
-2.66866e-10
-1.19758e-07
-1.83001e-07
-1.67191e-07
-7.77521e-08
5.60761e-08
1.74032e-07
2.332e-07
2.21834e-07
1.32639e-07
-6.40234e-10
-1.20448e-07
-1.83774e-07
-1.67781e-07
-7.78941e-08
5.64399e-08
1.74735e-07
2.33986e-07
2.2242e-07
1.32773e-07
-1.0137e-09
-1.2114e-07
-1.84551e-07
-1.68376e-07
-7.80384e-08
5.68045e-08
1.75441e-07
2.34774e-07
2.23009e-07
1.32909e-07
-1.38587e-09
-1.21833e-07
-1.85329e-07
-1.68973e-07
-7.8186e-08
5.71685e-08
1.76147e-07
2.35564e-07
2.23602e-07
1.33051e-07
-1.7553e-09
-1.22525e-07
-1.8611e-07
-1.69575e-07
-7.83379e-08
5.75304e-08
1.76853e-07
2.36355e-07
2.24198e-07
1.33196e-07
-2.12143e-09
-1.23217e-07
-1.86891e-07
-1.7018e-07
-7.8494e-08
5.78898e-08
1.77557e-07
2.37147e-07
2.24797e-07
1.33346e-07
-2.4837e-09
-1.23906e-07
-1.87672e-07
-1.70787e-07
-7.86542e-08
5.82461e-08
1.7826e-07
2.37937e-07
2.25398e-07
1.33501e-07
-2.84084e-09
-1.24593e-07
-1.88453e-07
-1.71397e-07
-7.88198e-08
5.8598e-08
1.7896e-07
2.38727e-07
2.26002e-07
1.33663e-07
-3.19208e-09
-1.25276e-07
-1.89233e-07
-1.72011e-07
-7.89912e-08
5.89448e-08
1.79656e-07
2.39515e-07
2.26609e-07
1.33829e-07
-3.53763e-09
-1.25954e-07
-1.90012e-07
-1.72626e-07
-7.91674e-08
5.92867e-08
1.80348e-07
2.40301e-07
2.27217e-07
1.33999e-07
-3.87798e-09
-1.26628e-07
-1.90787e-07
-1.73242e-07
-7.93471e-08
5.96242e-08
1.81035e-07
2.41083e-07
2.27825e-07
1.34172e-07
-4.21412e-09
-1.27298e-07
-1.91559e-07
-1.73857e-07
-7.95289e-08
5.99583e-08
1.81718e-07
2.41861e-07
2.28431e-07
1.34342e-07
-4.54859e-09
-1.27964e-07
-1.92325e-07
-1.74467e-07
-7.97087e-08
6.02914e-08
1.82397e-07
2.42633e-07
2.29033e-07
1.34504e-07
-4.88659e-09
-1.28627e-07
-1.93082e-07
-1.75065e-07
-7.98796e-08
6.06284e-08
1.83072e-07
2.43395e-07
2.29624e-07
1.34652e-07
-5.23167e-09
-1.29288e-07
-1.93826e-07
-1.75646e-07
-8.00359e-08
6.09725e-08
1.83744e-07
2.44144e-07
2.30197e-07
1.34789e-07
-5.57833e-09
-1.29941e-07
-1.94554e-07
-1.76208e-07
-8.01792e-08
6.1319e-08
1.84408e-07
2.44876e-07
2.30752e-07
1.34882e-07
-5.94125e-09
-1.3058e-07
-1.95245e-07
-1.76718e-07
-8.02779e-08
6.16832e-08
1.85053e-07
2.45572e-07
2.31256e-07
1.34724e-07
-6.45469e-09
-1.31206e-07
-1.95783e-07
-1.76987e-07
-8.01359e-08
6.21888e-08
1.8569e-07
2.46129e-07
2.31519e-07
1.34096e-07
-7.24121e-09
-1.31781e-07
-1.95957e-07
-1.76774e-07
-7.95572e-08
6.29278e-08
1.86312e-07
2.46355e-07
2.31303e-07
1.32744e-07
1.34259e-08
-9.8954e-08
-1.61533e-07
-1.53283e-07
-7.78745e-08
4.3231e-08
1.53139e-07
2.11079e-07
2.07662e-07
1.3246e-07
1.31836e-08
-9.90412e-08
-1.6147e-07
-1.5307e-07
-7.75824e-08
4.34556e-08
1.53224e-07
2.11031e-07
2.07452e-07
1.3226e-07
1.29284e-08
-9.92535e-08
-1.61579e-07
-1.53027e-07
-7.73875e-08
4.3683e-08
1.53441e-07
2.11164e-07
2.07408e-07
1.32118e-07
1.26646e-08
-9.95252e-08
-1.61785e-07
-1.53086e-07
-7.72526e-08
4.39192e-08
1.5372e-07
2.11397e-07
2.07466e-07
1.3199e-07
1.23897e-08
-9.98223e-08
-1.62026e-07
-1.53178e-07
-7.71317e-08
4.41666e-08
1.54025e-07
2.11667e-07
2.07556e-07
1.3187e-07
1.21076e-08
-1.00138e-07
-1.62291e-07
-1.53291e-07
-7.70196e-08
4.44208e-08
1.54349e-07
2.11962e-07
2.07668e-07
1.31762e-07
1.1821e-08
-1.00472e-07
-1.62581e-07
-1.53426e-07
-7.69189e-08
4.46792e-08
1.5469e-07
2.12281e-07
2.07803e-07
1.31663e-07
1.15301e-08
-1.00821e-07
-1.62893e-07
-1.53582e-07
-7.68283e-08
4.49419e-08
1.55047e-07
2.12622e-07
2.07958e-07
1.31572e-07
1.12344e-08
-1.01185e-07
-1.63224e-07
-1.53755e-07
-7.67461e-08
4.52097e-08
1.5542e-07
2.12982e-07
2.0813e-07
1.31489e-07
1.0934e-08
-1.01563e-07
-1.63574e-07
-1.53945e-07
-7.66715e-08
4.54825e-08
1.55807e-07
2.13361e-07
2.08319e-07
1.31412e-07
1.06288e-08
-1.01955e-07
-1.63941e-07
-1.54151e-07
-7.6604e-08
4.57606e-08
1.56208e-07
2.13757e-07
2.08524e-07
1.31343e-07
1.03189e-08
-1.0236e-07
-1.64326e-07
-1.54372e-07
-7.65435e-08
4.60437e-08
1.56623e-07
2.1417e-07
2.08743e-07
1.3128e-07
1.00052e-08
-1.02778e-07
-1.64728e-07
-1.54609e-07
-7.64903e-08
4.63312e-08
1.57051e-07
2.14599e-07
2.08978e-07
1.31225e-07
9.68781e-09
-1.03208e-07
-1.65146e-07
-1.5486e-07
-7.64444e-08
4.66228e-08
1.57491e-07
2.15045e-07
2.09228e-07
1.31176e-07
9.36643e-09
-1.03651e-07
-1.65581e-07
-1.55127e-07
-7.64059e-08
4.6919e-08
1.57944e-07
2.15507e-07
2.09493e-07
1.31136e-07
9.04161e-09
-1.04106e-07
-1.66033e-07
-1.5541e-07
-7.63752e-08
4.72191e-08
1.5841e-07
2.15985e-07
2.09774e-07
1.31103e-07
8.71407e-09
-1.04573e-07
-1.66501e-07
-1.55708e-07
-7.63528e-08
4.75226e-08
1.58888e-07
2.1648e-07
2.10069e-07
1.31079e-07
8.38382e-09
-1.05052e-07
-1.66985e-07
-1.56022e-07
-7.63387e-08
4.78292e-08
1.59378e-07
2.1699e-07
2.10381e-07
1.31063e-07
8.05062e-09
-1.05543e-07
-1.67487e-07
-1.56351e-07
-7.63329e-08
4.81394e-08
1.5988e-07
2.17517e-07
2.10708e-07
1.31055e-07
7.71479e-09
-1.06045e-07
-1.68005e-07
-1.56697e-07
-7.63356e-08
4.84529e-08
1.60395e-07
2.18059e-07
2.1105e-07
1.31056e-07
7.37685e-09
-1.06559e-07
-1.68539e-07
-1.57059e-07
-7.63471e-08
4.8769e-08
1.60921e-07
2.18618e-07
2.11409e-07
1.31066e-07
7.03695e-09
-1.07084e-07
-1.69089e-07
-1.57436e-07
-7.63673e-08
4.90877e-08
1.61458e-07
2.19191e-07
2.11782e-07
1.31084e-07
6.69533e-09
-1.07619e-07
-1.69655e-07
-1.57828e-07
-7.63962e-08
4.94087e-08
1.62005e-07
2.1978e-07
2.12171e-07
1.31111e-07
6.35213e-09
-1.08165e-07
-1.70235e-07
-1.58236e-07
-7.64338e-08
4.9732e-08
1.62564e-07
2.20384e-07
2.12575e-07
1.31146e-07
6.00718e-09
-1.08721e-07
-1.70831e-07
-1.58658e-07
-7.64798e-08
5.00576e-08
1.63133e-07
2.21002e-07
2.12993e-07
1.3119e-07
5.66057e-09
-1.09288e-07
-1.71442e-07
-1.59095e-07
-7.6534e-08
5.03855e-08
1.63712e-07
2.21634e-07
2.13426e-07
1.31241e-07
5.31278e-09
-1.09863e-07
-1.72066e-07
-1.59546e-07
-7.65966e-08
5.07153e-08
1.64301e-07
2.22279e-07
2.13872e-07
1.31301e-07
4.96363e-09
-1.10448e-07
-1.72704e-07
-1.6001e-07
-7.66671e-08
5.10472e-08
1.64899e-07
2.22938e-07
2.14332e-07
1.31367e-07
4.61206e-09
-1.11043e-07
-1.73356e-07
-1.60488e-07
-7.67444e-08
5.13821e-08
1.65507e-07
2.2361e-07
2.14805e-07
1.3144e-07
4.25788e-09
-1.11648e-07
-1.74021e-07
-1.60978e-07
-7.6828e-08
5.17204e-08
1.66126e-07
2.24294e-07
2.15289e-07
1.31519e-07
3.90245e-09
-1.12261e-07
-1.74698e-07
-1.6148e-07
-7.69188e-08
5.20606e-08
1.66753e-07
2.2499e-07
2.15786e-07
1.31606e-07
3.54608e-09
-1.12883e-07
-1.75387e-07
-1.61994e-07
-7.70165e-08
5.24025e-08
1.67388e-07
2.25696e-07
2.16294e-07
1.31698e-07
3.18732e-09
-1.13512e-07
-1.76087e-07
-1.62518e-07
-7.71194e-08
5.27474e-08
1.68031e-07
2.26413e-07
2.16813e-07
1.31794e-07
2.82568e-09
-1.14151e-07
-1.76798e-07
-1.63051e-07
-7.72269e-08
5.3096e-08
1.68684e-07
2.27141e-07
2.17341e-07
1.31896e-07
2.46207e-09
-1.14797e-07
-1.77518e-07
-1.63595e-07
-7.73393e-08
5.34473e-08
1.69344e-07
2.27877e-07
2.17878e-07
1.32002e-07
2.09695e-09
-1.1545e-07
-1.78248e-07
-1.64147e-07
-7.74566e-08
5.38009e-08
1.70011e-07
2.28623e-07
2.18423e-07
1.32113e-07
1.72999e-09
-1.1611e-07
-1.78987e-07
-1.64707e-07
-7.75782e-08
5.4157e-08
1.70685e-07
2.29376e-07
2.18977e-07
1.32227e-07
1.36117e-09
-1.16776e-07
-1.79734e-07
-1.65275e-07
-7.77034e-08
5.45157e-08
1.71365e-07
2.30137e-07
2.19538e-07
1.32346e-07
9.91013e-10
-1.17448e-07
-1.80488e-07
-1.65849e-07
-7.78324e-08
5.48764e-08
1.72051e-07
2.30904e-07
2.20105e-07
1.32468e-07
6.19786e-10
-1.18124e-07
-1.81248e-07
-1.6643e-07
-7.7965e-08
5.5239e-08
1.72742e-07
2.31677e-07
2.20679e-07
1.32593e-07
2.47731e-10
-1.18806e-07
-1.82014e-07
-1.67016e-07
-7.81008e-08
5.56031e-08
1.73437e-07
2.32455e-07
2.21258e-07
1.32722e-07
-1.2467e-10
-1.1949e-07
-1.82785e-07
-1.67608e-07
-7.82398e-08
5.59682e-08
1.74136e-07
2.33238e-07
2.21841e-07
1.32854e-07
-4.97375e-10
-1.20178e-07
-1.8356e-07
-1.68203e-07
-7.83815e-08
5.63344e-08
1.74838e-07
2.34024e-07
2.22429e-07
1.32988e-07
-8.70146e-10
-1.20868e-07
-1.84337e-07
-1.68802e-07
-7.85255e-08
5.67013e-08
1.75542e-07
2.34812e-07
2.23019e-07
1.33125e-07
-1.24161e-09
-1.21559e-07
-1.85117e-07
-1.69404e-07
-7.86729e-08
5.70675e-08
1.76247e-07
2.35602e-07
2.23613e-07
1.33267e-07
-1.61033e-09
-1.2225e-07
-1.85899e-07
-1.7001e-07
-7.88246e-08
5.74317e-08
1.76953e-07
2.36393e-07
2.24211e-07
1.33414e-07
-1.97577e-09
-1.2294e-07
-1.86682e-07
-1.70619e-07
-7.89806e-08
5.77933e-08
1.77657e-07
2.37184e-07
2.24811e-07
1.33564e-07
-2.3374e-09
-1.23628e-07
-1.87464e-07
-1.71231e-07
-7.91407e-08
5.81517e-08
1.78359e-07
2.37975e-07
2.25413e-07
1.3372e-07
-2.69392e-09
-1.24313e-07
-1.88246e-07
-1.71846e-07
-7.93063e-08
5.85056e-08
1.79058e-07
2.38765e-07
2.26019e-07
1.33883e-07
-3.04461e-09
-1.24995e-07
-1.89027e-07
-1.72463e-07
-7.94777e-08
5.88544e-08
1.79753e-07
2.39553e-07
2.26627e-07
1.3405e-07
-3.38968e-09
-1.25673e-07
-1.89807e-07
-1.73083e-07
-7.96538e-08
5.91981e-08
1.80445e-07
2.40339e-07
2.27236e-07
1.34221e-07
-3.72964e-09
-1.26346e-07
-1.90583e-07
-1.73702e-07
-7.98336e-08
5.95374e-08
1.81132e-07
2.41122e-07
2.27845e-07
1.34394e-07
-4.06546e-09
-1.27015e-07
-1.91356e-07
-1.7432e-07
-8.00154e-08
5.98731e-08
1.81814e-07
2.419e-07
2.28454e-07
1.34566e-07
-4.3997e-09
-1.2768e-07
-1.92123e-07
-1.74934e-07
-8.01954e-08
6.02076e-08
1.82492e-07
2.42672e-07
2.29056e-07
1.34729e-07
-4.73756e-09
-1.28342e-07
-1.9288e-07
-1.75535e-07
-8.03664e-08
6.0546e-08
1.83167e-07
2.43435e-07
2.29648e-07
1.34878e-07
-5.08257e-09
-1.29003e-07
-1.93625e-07
-1.76119e-07
-8.05228e-08
6.08912e-08
1.83839e-07
2.44184e-07
2.30223e-07
1.35016e-07
-5.42924e-09
-1.29655e-07
-1.94353e-07
-1.76683e-07