/*--------------------------------*- C++ -*----------------------------------*\
| =========                 |                                                 |
| \\      /  F ield         | OpenFOAM: The Open Source CFD Toolbox           |
|  \\    /   O peration     | Version:  2.4.0                                 |
|   \\  /    A nd           | Web:      www.OpenFOAM.org                      |
|    \\/     M anipulation  |                                                 |
\*---------------------------------------------------------------------------*/
FoamFile
{
    version     2.0;
    format      ascii;
    class       surfaceScalarField;
    location    "600";
    object      phi;
}
// * * * * * * * * * * * * * * * * * * * * * * * * * * * * * * * * * * * * * //

dimensions      [0 3 -1 0 0 0 0];

internalField   nonuniform List<scalar> 
16700
(
0.0202187
-1.85289e-08
-1.67395e-11
0.0202187
3.77234e-09
1.04551e-10
0.0202186
2.32068e-08
2.21434e-10
0.0202186
3.20672e-08
1.24851e-10
0.0202186
2.9665e-08
4.16753e-11
0.0202186
1.82267e-08
1.77422e-10
0.0202186
-4.06022e-10
5.95513e-11
0.0202186
-2.19625e-08
-3.18286e-10
0.0202186
-3.39107e-08
-3.32894e-10
-3.20886e-08
-1.05963e-10
0.0238047
-3.48811e-08
-4.8022e-11
0.0238047
-3.73101e-09
1.02282e-10
0.0238047
2.6959e-08
2.52627e-10
0.0238047
4.5515e-08
1.77207e-10
0.0238047
4.7755e-08
8.20449e-11
0.0238046
3.50361e-08
1.90741e-10
0.0238046
8.4971e-09
7.21675e-11
0.0238046
-2.56963e-08
-3.12584e-10
0.0238046
-4.82943e-08
-3.70193e-10
-5.11031e-08
-1.64425e-10
0.0255703
-4.809e-08
-7.62864e-11
0.0255703
-1.29272e-08
8.61585e-11
0.0255703
2.49942e-08
2.5372e-10
0.0255703
5.14577e-08
2.01797e-10
0.0255703
5.9293e-08
1.11845e-10
0.0255703
4.82299e-08
2.02444e-10
0.0255703
1.84192e-08
8.35737e-11
0.0255703
-2.34552e-08
-2.94519e-10
0.0255703
-5.4577e-08
-3.78273e-10
-6.32826e-08
-1.9912e-10
0.0268027
-5.84921e-08
-1.01772e-10
0.0268027
-2.20328e-08
6.52852e-11
0.0268027
2.04713e-08
2.43544e-10
0.0268027
5.32024e-08
2.12875e-10
0.0268027
6.6556e-08
1.34945e-10
0.0268027
5.84399e-08
2.15859e-10
0.0268027
2.78595e-08
9.68512e-11
0.0268027
-1.86312e-08
-2.73873e-10
0.0268027
-5.63543e-08
-3.76387e-10
-7.09551e-08
-2.22105e-10
0.0277537
-6.65808e-08
-1.23933e-10
0.0277537
-3.04566e-08
4.32232e-11
0.0277537
1.48055e-08
2.28082e-10
0.0277537
5.24452e-08
2.15814e-10
0.0277537
7.09033e-08
1.52366e-10
0.0277537
6.62889e-08
2.29136e-10
0.0277537
3.63887e-08
1.1096e-10
0.0277537
-1.2715e-08
-2.52161e-10
0.0277537
-5.54764e-08
-3.68962e-10
-7.55393e-08
-2.37379e-10
0.0285298
-7.2822e-08
-1.42833e-10
0.0285298
-3.80258e-08
2.14251e-11
0.0285298
8.71866e-09
2.09912e-10
0.0285298
5.01768e-08
2.13342e-10
0.0285298
7.32285e-08
1.65058e-10
0.0285298
7.22952e-08
2.41473e-10
0.0285298
4.39302e-08
1.25246e-10
0.0285298
-6.44302e-09
-2.30204e-10
0.0285298
-5.3016e-08
-3.58199e-10
-7.79804e-08
-2.4709e-10
0.0291882
-7.76119e-08
-1.5873e-10
0.0291882
-4.47374e-08
5.8521e-13
0.0291882
2.59646e-09
1.90406e-10
0.0291882
4.70129e-08
2.07139e-10
0.0291882
7.41467e-08
1.7388e-10
0.0291882
7.68743e-08
2.52479e-10
0.0291882
5.05387e-08
1.39279e-10
0.0291882
-1.94904e-10
-2.08412e-10
0.0291882
-4.9632e-08
-3.45307e-10
-7.89327e-08
-2.52643e-10
0.0297626
-8.12773e-08
-1.71924e-10
0.0297626
-5.06592e-08
-1.88099e-11
0.0297626
-3.35421e-09
1.70381e-10
0.0297626
4.3351e-08
1.98321e-10
0.0297626
7.40953e-08
1.79523e-10
0.0297626
8.03575e-08
2.61961e-10
0.0297626
5.63166e-08
1.5274e-10
0.0297626
5.83395e-09
-1.87024e-10
0.0297626
-4.5744e-08
-3.31013e-10
-7.88618e-08
-2.54994e-10
0.0302728
-8.40868e-08
-1.82659e-10
0.0302728
-5.58872e-08
-3.71348e-11
0.0302728
-9.02768e-09
1.50404e-10
0.0302728
3.94542e-08
1.87681e-10
0.0302728
7.33941e-08
1.82522e-10
0.0302728
8.30114e-08
2.69836e-10
0.0302728
6.13815e-08
1.65373e-10
0.0302728
1.15498e-08
-1.66264e-10
0.0302728
-4.16264e-08
-3.15841e-10
-7.81075e-08
-2.54813e-10
0.0307331
-8.62581e-08
-1.91185e-10
0.0307331
-6.05241e-08
-5.37538e-11
0.0307331
-1.43769e-08
1.30816e-10
0.0307331
3.54977e-08
1.75775e-10
0.0307331
7.22786e-08
1.83323e-10
0.0307331
8.50496e-08
2.76133e-10
0.0307331
6.58483e-08
1.77035e-10
0.0307331
1.69158e-08
-1.46269e-10
0.0307331
-3.74588e-08
-3.00144e-10
-7.69191e-08
-2.526e-10
0.0311535
-8.79666e-08
-1.97727e-10
0.0311535
-6.4669e-08
-6.87726e-11
0.0311535
-1.93895e-08
1.11851e-10
0.0311535
3.15981e-08
1.63024e-10
0.0311535
7.09234e-08
1.82301e-10
0.0311535
8.66428e-08
2.80913e-10
0.0311535
6.9823e-08
1.87622e-10
0.0311535
2.19277e-08
-1.27137e-10
0.0311535
-3.3359e-08
-2.84185e-10
-7.54804e-08
-2.48745e-10
0.0315404
-8.93541e-08
-2.02475e-10
0.0315404
-6.84134e-08
-8.22049e-11
0.0315404
-2.40734e-08
9.37042e-11
0.0315404
2.78318e-08
1.49772e-10
0.0315404
6.94589e-08
1.79771e-10
0.0315404
8.7928e-08
2.84263e-10
0.0315404
7.34006e-08
1.97065e-10
0.0315404
2.65998e-08
-1.08981e-10
0.0315404
-2.94025e-08
-2.68197e-10
-7.39278e-08
-2.43566e-10
0.0318996
-9.05333e-08
-2.05619e-10
0.0318996
-7.18379e-08
-9.41259e-11
0.0318996
-2.84474e-08
7.64491e-11
0.0318996
2.42478e-08
1.3624e-10
0.0318996
6.79819e-08
1.75992e-10
0.0318996
8.90143e-08
2.86316e-10
0.0318996
7.66637e-08
2.0538e-10
0.0318996
3.09555e-08
-9.18454e-11
0.0318996
-2.56371e-08
-2.52332e-10
-7.23619e-08
-2.37301e-10
0.0322366
-9.15938e-08
-2.07336e-10
0.0322366
-7.50123e-08
-1.04637e-10
0.0322366
-3.25352e-08
6.00913e-11
0.0322366
2.08765e-08
1.22572e-10
0.0322366
6.65642e-08
1.71174e-10
0.0322366
8.99882e-08
2.87187e-10
0.0322366
7.96821e-08
2.12595e-10
0.0322366
3.50214e-08
-7.56964e-11
0.0322366
-2.20912e-08
-2.36654e-10
-7.08567e-08
-2.30137e-10
0.0325538
-9.26068e-08
-2.07773e-10
0.0325538
-7.79971e-08
-1.13776e-10
0.0325538
-3.63635e-08
4.47125e-11
0.0325538
1.77345e-08
1.08959e-10
0.0325538
6.52584e-08
1.65529e-10
0.0325538
9.09185e-08
2.86965e-10
0.0325538
8.25162e-08
2.18695e-10
0.0325538
3.88264e-08
-6.0571e-11
0.0325538
-1.87798e-08
-2.21286e-10
-6.9466e-08
-2.22275e-10
0.0328526
-9.36287e-08
-2.07075e-10
0.0328526
-8.08445e-08
-1.21596e-10
0.0328526
-3.99605e-08
3.03843e-11
0.0328526
1.48282e-08
9.55706e-11
0.0328526
6.41024e-08
1.59254e-10
0.0328526
9.18599e-08
2.85782e-10
0.0328526
8.52175e-08
2.23708e-10
0.0328526
4.24e-08
-4.65315e-11
0.0328526
-1.57078e-08
-2.06373e-10
-6.8228e-08
-2.13899e-10
0.0331351
-9.47036e-08
-2.05384e-10
0.0331351
-8.35983e-08
-1.28201e-10
0.0331351
-4.3353e-08
1.70913e-11
0.0331351
1.21578e-08
8.24832e-11
0.0331352
6.31227e-08
1.52499e-10
0.0331351
9.28552e-08
2.8378e-10
0.0331351
8.78291e-08
2.27715e-10
0.0331351
4.57698e-08
-3.35554e-11
0.0331351
-1.28741e-08
-1.91978e-10
-6.71695e-08
-2.0514e-10
0.0334028
-9.58655e-08
-2.02843e-10
0.0334028
-8.62953e-08
-1.3368e-10
0.0334028
-4.65663e-08
4.86225e-12
0.0334028
9.71944e-09
6.97895e-11
0.0334028
6.23378e-08
1.45421e-10
0.0334028
9.39376e-08
2.81069e-10
0.0334028
9.03871e-08
2.30766e-10
0.0334028
4.89611e-08
-2.16047e-11
0.0334028
-1.02738e-08
-1.78153e-10
-6.63086e-08
-1.96139e-10
0.0336552
-9.714e-08
-1.99611e-10
0.0336552
-8.89664e-08
-1.38096e-10
0.0336552
-4.96246e-08
-5.95699e-12
0.0336552
7.50501e-09
5.76453e-11
0.0336552
6.17583e-08
1.38211e-10
0.0336552
9.51322e-08
2.77778e-10
0.0336552
9.29216e-08
2.32901e-10
0.0336552
5.19982e-08
-1.06818e-11
0.0336552
-7.89797e-09
-1.65022e-10
-6.56556e-08
-1.87089e-10
0.0338909
-9.85452e-08
-1.95868e-10
0.0338909
-9.16363e-08
-1.41546e-10
0.0338909
-5.25499e-08
-1.60607e-11
0.0338909
5.50372e-09
4.61965e-11
0.0338909
6.13887e-08
1.31068e-10
0.0338909
9.64567e-08
2.74092e-10
0.0338909
9.54569e-08
2.34217e-10
0.0338909
5.4903e-08
-7.40699e-13
0.0338909
-5.73537e-09
-1.52734e-10
-6.52146e-08
-1.7819e-10
0.0341098
-1.00093e-07
-1.91783e-10
0.0341099
-9.43245e-08
-1.44166e-10
0.0341099
-5.53607e-08
-2.54046e-11
0.0341099
3.70443e-09
3.55055e-11
0.0341099
6.12298e-08
1.24144e-10
0.0341099
9.79232e-08
2.70191e-10
0.0341099
9.80119e-08
2.34849e-10
0.0341098
5.76933e-08
9.00883e-12
0.0341098
-3.77443e-09
-1.41353e-10
-6.4986e-08
-1.69581e-10
0.0343114
-1.01792e-07
-1.87534e-10
0.0343114
-9.70456e-08
-1.46088e-10
0.0343114
-5.80731e-08
-3.37235e-11
0.0343114
2.09614e-09
2.5645e-11
0.0343114
6.12796e-08
1.17595e-10
0.0343114
9.95392e-08
2.66242e-10
0.0343114
1.00601e-07
2.34917e-10
0.0343114
6.03866e-08
1.60262e-11
0.0343114
-2.00387e-09
-1.30942e-10
-6.49674e-08
-1.61418e-10
0.0344945
-1.03645e-07
-1.83304e-10
0.0344945
-9.98099e-08
-1.47463e-10
0.0344945
-6.07001e-08
-4.10503e-11
0.0344945
6.68224e-10
1.66798e-11
0.0344945
6.1534e-08
1.11576e-10
0.0344945
1.01308e-07
2.62435e-10
0.0344945
1.03234e-07
2.34572e-10
0.0344945
6.29954e-08
2.24327e-11
0.0344945
-4.12915e-10
-1.21561e-10
-6.51545e-08
-1.53852e-10
0.0346586
-1.05653e-07
-1.79264e-10
0.0346586
-1.02624e-07
-1.4845e-10
0.0346586
-6.3252e-08
-4.74711e-11
0.0346586
-5.8866e-10
8.63705e-12
0.0346586
6.1988e-08
1.06209e-10
0.0346586
1.03232e-07
2.58942e-10
0.0346586
1.05917e-07
2.33966e-10
0.0346586
6.55298e-08
2.78974e-11
0.0346586
1.00788e-09
-1.13228e-10
-6.5542e-08
-1.47e-10
0.0348024
-1.07815e-07
-1.75588e-10
0.0348024
-1.05493e-07
-1.49192e-10
0.0348024
-6.57367e-08
-5.30774e-11
0.0348024
-1.68304e-09
1.5906e-12
0.0348024
6.26359e-08
1.01628e-10
0.0348024
1.05309e-07
2.55925e-10
0.0348024
1.08656e-07
2.33236e-10
0.0348024
6.79973e-08
3.27427e-11
0.0348024
2.267e-09
-1.0597e-10
-6.61239e-08
-1.40999e-10
0.0349245
-1.10127e-07
-1.72453e-10
0.0349245
-1.08418e-07
-1.49842e-10
0.0349245
-6.81599e-08
-5.79665e-11
0.0349245
-2.62303e-09
-4.1979e-12
0.0349245
6.34707e-08
9.79604e-11
0.0349245
1.07536e-07
2.53558e-10
0.0349245
1.1145e-07
2.32536e-10
0.0349245
7.04034e-08
3.68549e-11
0.0349245
3.37229e-09
-9.98263e-11
-6.6893e-08
-1.35979e-10
0.0350239
-1.12586e-07
-1.7e-10
0.0350239
-1.11398e-07
-1.50559e-10
0.0350239
-7.05253e-08
-6.22407e-11
0.0350239
-3.41493e-09
-9.10634e-12
0.0350239
6.44858e-08
9.52955e-11
0.0350239
1.09907e-07
2.52011e-10
0.0350239
1.143e-07
2.32031e-10
0.0350239
7.27517e-08
4.03797e-11
0.0350239
4.33021e-09
-9.47985e-11
-6.78426e-08
-1.3202e-10
0.0351
-1.15186e-07
-1.68355e-10
0.0351
-1.14431e-07
-1.51469e-10
0.0351
-7.28351e-08
-6.59932e-11
0.0351
-4.06279e-09
-1.39027e-11
0.0351
6.56753e-08
9.37118e-11
0.0351
1.1242e-07
2.51403e-10
0.0351
1.17204e-07
2.31839e-10
0.0351
7.50442e-08
4.33365e-11
0.0351
5.14564e-09
-9.08689e-11
-6.89668e-08
-1.29197e-10
0.0351514
-1.17921e-07
-1.67641e-10
0.0351514
-1.17515e-07
-1.52633e-10
0.0351514
-7.50904e-08
-6.9232e-11
0.0351514
-4.57167e-09
-1.73025e-11
0.0351514
6.70331e-08
9.33028e-11
0.0351514
1.15067e-07
2.51807e-10
0.0351514
1.20159e-07
2.32007e-10
0.0351514
7.7282e-08
4.58273e-11
0.0351514
5.8231e-09
-8.8053e-11
-7.0259e-08
-1.2762e-10
0.0351771
-1.20786e-07
-1.67937e-10
0.0351772
-1.20647e-07
-1.54107e-10
0.0351772
-7.72923e-08
-7.19672e-11
0.0351772
-4.94691e-09
-1.98084e-11
0.0351772
6.85514e-08
9.41207e-11
0.0351771
1.17842e-07
2.53291e-10
0.0351771
1.23161e-07
2.32602e-10
0.0351771
7.94663e-08
4.78406e-11
0.0351771
6.36797e-09
-8.63859e-11
-7.17115e-08
-1.2735e-10
0.0351771
-1.23772e-07
-1.69253e-10
0.0351771
-1.23822e-07
-1.55985e-10
0.0351772
-7.94416e-08
-7.42952e-11
0.0351772
-5.19324e-09
-2.11825e-11
0.0351771
7.02237e-08
9.61588e-11
0.0351771
1.20738e-07
2.55949e-10
0.0351771
1.26207e-07
2.33738e-10
0.0351771
8.15977e-08
4.9394e-11
0.0351771
6.78485e-09
-8.58612e-11
-7.33176e-08
-1.28357e-10
0.0351514
-1.26878e-07
-1.71608e-10
0.0351514
-1.27039e-07
-1.58293e-10
0.0351514
-8.15385e-08
-7.62495e-11
0.0351514
-5.31271e-09
-2.15953e-11
0.0351514
7.20467e-08
9.9446e-11
0.0351514
1.23753e-07
2.59822e-10
0.0351514
1.29294e-07
2.35429e-10
0.0351514
8.36763e-08
5.0512e-11
0.0351514
7.07592e-09
-8.6473e-11
-7.5074e-08
-1.30654e-10
0.0351
-1.30101e-07
-1.74989e-10
0.0351
-1.30297e-07
-1.60922e-10
0.0351
-8.35833e-08
-7.77249e-11
0.0351
-5.30688e-09
-2.10187e-11
0.0351
7.40184e-08
1.03989e-10
0.0351
1.26884e-07
2.64821e-10
0.0351
1.32423e-07
2.3756e-10
0.0351
8.57027e-08
5.11593e-11
0.0351
7.24258e-09
-8.82349e-11
-7.69788e-08
-1.34274e-10
0.0350239
-1.33441e-07
-1.79288e-10
0.0350239
-1.33597e-07
-1.6377e-10
0.0350239
-8.5578e-08
-7.86584e-11
0.0350239
-5.17775e-09
-1.94295e-11
0.0350239
7.61376e-08
1.09701e-10
0.0350239
1.30131e-07
2.70822e-10
0.0350239
1.35594e-07
2.40032e-10
0.0350239
8.76788e-08
5.12807e-11
0.0350239
7.28665e-09
-9.11316e-11
-7.90305e-08
-1.39136e-10
0.0349245
-1.36901e-07
-1.84373e-10
0.0349245
-1.36942e-07
-1.66772e-10
0.0349245
-8.75251e-08
-7.90393e-11
0.0349245
-4.92628e-09
-1.67898e-11
0.0349245
7.84054e-08
1.16492e-10
0.0349245
1.33497e-07
2.77746e-10
0.0349245
1.38811e-07
2.4278e-10
0.0349245
8.96068e-08
5.08131e-11
0.0349245
7.20894e-09
-9.51514e-11
-8.12301e-08
-1.4513e-10
0.0348024
-1.40487e-07
-1.90131e-10
0.0348024
-1.40338e-07
-1.69821e-10
0.0348024
-8.94268e-08
-7.88053e-11
0.0348024
-4.55039e-09
-1.3407e-11
0.0348024
8.08272e-08
1.24308e-10
0.0348024
1.36989e-07
2.855e-10
0.0348024
1.42078e-07
2.45695e-10
0.0348024
9.14891e-08
4.9671e-11
0.0348024
7.00761e-09
-1.00305e-10
-8.35832e-08
-1.52193e-10
0.0346585
-1.44211e-07
-1.96418e-10
0.0346585
-1.43793e-07
-1.72754e-10
0.0346585
-9.12849e-08
-7.78538e-11
0.0346585
-4.04498e-09
-8.80555e-12
0.0346585
8.34133e-08
1.33059e-10
0.0346585
1.40618e-07
2.93929e-10
0.0346585
1.45404e-07
2.48615e-10
0.0346585
9.33272e-08
4.77702e-11
0.0346585
6.67728e-09
-1.06588e-10
-8.60998e-08
-1.6024e-10
0.0344945
-1.48087e-07
-2.03049e-10
0.0344945
-1.47314e-07
-1.75411e-10
0.0344945
-9.30987e-08
-7.61103e-11
0.0344945
-3.40003e-09
-3.62191e-12
0.0344945
8.61788e-08
1.42607e-10
0.0344945
1.44398e-07
3.02841e-10
0.0344945
1.48797e-07
2.51376e-10
0.0344945
9.51204e-08
4.50705e-11
0.0344945
6.20833e-09
-1.13959e-10
-8.87947e-08
-1.69132e-10
0.0343114
-1.52133e-07
-2.09844e-10
0.0343114
-1.50912e-07
-1.77654e-10
0.0343114
-9.48642e-08
-7.35179e-11
0.0343114
-2.60003e-09
2.61209e-12
0.0343114
8.91448e-08
1.52822e-10
0.0343114
1.48347e-07
3.12074e-10
0.0343114
1.52266e-07
2.5384e-10
0.0343114
9.68641e-08
4.14261e-11
0.0343114
5.58526e-09
-1.2238e-10
-9.16887e-08
-1.7873e-10
0.0341098
-1.56371e-07
-2.16634e-10
0.0341098
-1.54592e-07
-1.79308e-10
0.0341098
-9.65708e-08
-7.00043e-11
0.0341098
-1.62116e-09
9.6827e-12
0.0341098
9.23392e-08
1.63585e-10
0.0341098
1.52487e-07
3.21471e-10
0.0341098
1.55816e-07
2.55856e-10
0.0341098
9.85476e-08
3.68959e-11
0.0341098
4.78463e-09
-1.31824e-10
-9.48093e-08
-1.88915e-10
0.0338909
-1.60822e-07
-2.23231e-10
0.0338909
-1.58357e-07
-1.80222e-10
0.0338909
-9.81996e-08
-6.55156e-11
0.0338909
-4.30321e-10
1.75144e-11
0.0338909
9.57963e-08
1.74738e-10
0.0338909
1.56839e-07
3.30836e-10
0.0338909
1.59449e-07
2.57277e-10
0.0338909
1.00152e-07
3.12285e-11
0.0338909
3.77399e-09
-1.42217e-10
-9.81902e-08
-1.99528e-10
0.0336551
-1.65507e-07
-2.29457e-10
0.0336551
-1.62201e-07
-1.80254e-10
0.0336551
-9.972e-08
-6.00259e-11
0.0336551
1.01644e-09
2.60277e-11
0.0336551
9.95561e-08
1.86127e-10
0.0336551
1.61425e-07
3.40009e-10
0.0336551
1.63159e-07
2.57982e-10
0.0336551
1.01646e-07
2.47447e-11
0.0336551
2.51037e-09
-1.53489e-10
-1.01871e-07
-2.10412e-10
0.0334028
-1.70444e-07
-2.3515e-10
0.0334028
-1.66107e-07
-1.793e-10
0.0334028
-1.01086e-07
-5.34859e-11
0.0334028
2.77538e-09
3.51401e-11
0.0334028
1.03663e-07
1.97604e-10
0.0334028
1.66259e-07
3.48823e-10
0.0334028
1.66927e-07
2.57852e-10
0.0334028
1.02984e-07
1.69965e-11
0.0334028
9.38888e-10
-1.65561e-10
-1.05895e-07
-2.21424e-10
0.0331351
-1.7564e-07
-2.40122e-10
0.0331351
-1.70041e-07
-1.77266e-10
0.0331351
-1.02236e-07
-4.59464e-11
0.0331351
4.9135e-09
4.47052e-11
0.0331351
1.08163e-07
2.08956e-10
0.0331351
1.71348e-07
3.57082e-10
0.0331351
1.70717e-07
2.56787e-10
0.0331351
1.04105e-07
8.05006e-12
0.0331351
-1.00563e-09
-1.78281e-10
-1.10307e-07
-2.32355e-10
0.0328526
-1.81087e-07
-2.44213e-10
0.0328526
-1.73948e-07
-1.74132e-10
0.0328526
-1.03088e-07
-3.74141e-11
0.0328526
7.50787e-09
5.45795e-11
0.0328526
1.13097e-07
2.20006e-10
0.0328526
1.76681e-07
3.64653e-10
0.0328526
1.74474e-07
2.54744e-10
0.0328526
1.04929e-07
-1.93914e-12
0.0328526
-3.39795e-09
-1.91515e-10
-1.1515e-07
-2.4302e-10
0.0325538
-1.86757e-07
-2.47298e-10
0.0325538
-1.77747e-07
-1.69852e-10
0.0325538
-1.03536e-07
-2.78198e-11
0.0325538
1.0647e-08
6.46645e-11
0.0325538
1.18501e-07
2.30636e-10
0.0325538
1.8223e-07
3.71457e-10
0.0325538
1.78114e-07
2.51679e-10
0.0325538
1.05351e-07
-1.27734e-11
0.0325538
-6.32369e-09
-2.05197e-10
-1.20459e-07
-2.53298e-10
0.0322365
-1.92598e-07
-2.49255e-10
0.0322365
-1.8132e-07
-1.64345e-10
0.0322365
-1.03446e-07
-1.6805e-11
0.0322365
1.443e-08
7.48574e-11
0.0322365
1.24399e-07
2.40725e-10
0.0322365
1.87934e-07
3.77399e-10
0.0322365
1.8152e-07
2.47538e-10
0.0322365
1.05242e-07
-2.45661e-11
0.0322365
-9.87901e-09
-2.19258e-10
-1.26261e-07
-2.63073e-10
0.0318996
-1.98513e-07
-2.49954e-10
0.0318996
-1.84507e-07
-1.57575e-10
0.0318996
-1.0265e-07
-6.60024e-12
0.0318996
1.89604e-08
8.49899e-11
0.0318996
1.30793e-07
2.50099e-10
0.0318995
1.93694e-07
3.82373e-10
0.0318995
1.84531e-07
2.42301e-10
0.0318995
1.0444e-07
-3.72621e-11
0.0318996
-1.41645e-08
-2.33555e-10
-1.32562e-07
-2.72174e-10
0.0315403
-2.04355e-07
-2.49265e-10
0.0315403
-1.87091e-07
-1.49546e-10
0.0315403
-1.00951e-07
4.41105e-12
0.0315403
2.43404e-08
9.48955e-11
0.0315403
1.37649e-07
2.5861e-10
0.0315403
1.99355e-07
3.8632e-10
0.0315403
1.86934e-07
2.35979e-10
0.0315403
1.02757e-07
-5.08052e-11
0.0315403
-1.92804e-08
-2.47967e-10
-1.39334e-07
-2.80438e-10
0.0311534
-2.09902e-07
-2.47049e-10
0.0311534
-1.88785e-07
-1.40211e-10
0.0311534
-9.81081e-08
1.64559e-11
0.0311534
3.06662e-08
1.04435e-10
0.0311534
1.4488e-07
2.66141e-10
0.0311534
2.0469e-07
3.892e-10
0.0311534
1.88449e-07
2.28549e-10
0.0311534
9.99624e-08
-6.52002e-11
0.0311534
-2.53229e-08
-2.62432e-10
-1.46504e-07
-2.87728e-10
0.0307331
-2.14828e-07
-2.43152e-10
0.0307331
-1.89209e-07
-1.29534e-10
0.0307331
-9.38366e-08
2.90861e-11
0.0307331
3.80104e-08
1.13401e-10
0.030733
1.52324e-07
2.72529e-10
0.030733
2.09367e-07
3.90951e-10
0.030733
1.88706e-07
2.2e-10
0.030733
9.57868e-08
-8.04023e-11
0.0307331
-3.23687e-08
-2.76821e-10
-1.53923e-07
-2.93855e-10
0.0302728
-2.1867e-07
-2.37415e-10
0.0302728
-1.87871e-07
-1.17549e-10
0.0302728
-8.78158e-08
4.20363e-11
0.0302727
4.63922e-08
1.21517e-10
0.0302727
1.59697e-07
2.77587e-10
0.0302727
2.12918e-07
3.91538e-10
0.0302727
1.87236e-07
2.10368e-10
0.0302727
8.99271e-08
-9.63087e-11
0.0302727
-4.04492e-08
-2.90935e-10
-1.61332e-07
-2.98569e-10
0.0297625
-2.20766e-07
-2.29651e-10
0.0297625
-1.84135e-07
-1.04312e-10
0.0297625
-7.96944e-08
5.50223e-11
0.0297625
5.57348e-08
1.28471e-10
0.0297625
1.66536e-07
2.81137e-10
0.0297625
2.14686e-07
3.90961e-10
0.0297625
1.83436e-07
1.99695e-10
0.0297625
8.20521e-08
-1.12829e-10
0.0297625
-4.9513e-08
-3.04562e-10
-1.68303e-07
-3.01581e-10
0.0291882
-2.20174e-07
-2.19649e-10
0.0291882
-1.77182e-07
-8.98963e-11
0.0291882
-6.91141e-08
6.76801e-11
0.0291881
6.57896e-08
1.33874e-10
0.0291881
1.72106e-07
2.82991e-10
0.0291881
2.13749e-07
3.89239e-10
0.0291881
1.76541e-07
1.88022e-10
0.0291882
7.18228e-08
-1.29852e-10
0.0291882
-5.93608e-08
-3.17418e-10
-1.74143e-07
-3.0252e-10
0.0285297
-2.15544e-07
-2.07181e-10
0.0285297
-1.65969e-07
-7.44628e-11
0.0285297
-5.57707e-08
7.94618e-11
0.0285297
7.6002e-08
1.37237e-10
0.0285297
1.75251e-07
2.82967e-10
0.0285297
2.08809e-07
3.86444e-10
0.0285297
1.6559e-07
1.75424e-10
0.0285297
5.89434e-08
-1.47196e-10
0.0285297
-6.95272e-08
-3.29085e-10
-1.77747e-07
-3.00886e-10
0.0277536
-2.049e-07
-1.91943e-10
0.0277536
-1.49163e-07
-5.81794e-11
0.0277536
-3.95291e-08
8.96053e-11
0.0277535
8.52636e-08
1.37947e-10
0.0277536
1.74122e-07
2.80893e-10
0.0277536
1.97999e-07
3.82678e-10
0.0277536
1.49368e-07
1.61933e-10
0.0277536
4.32578e-08
-1.64654e-10
0.0277536
-7.90626e-08
-3.38974e-10
-1.77319e-07
-2.95973e-10
0.0268026
-1.85241e-07
-1.7356e-10
0.0268026
-1.25076e-07
-4.12222e-11
0.0268026
-2.0713e-08
9.69502e-11
0.0268026
9.14037e-08
1.3519e-10
0.0268026
1.65672e-07
2.76597e-10
0.0268026
1.78554e-07
3.78018e-10
0.0268026
1.26362e-07
1.47509e-10
0.0268026
2.49888e-08
-1.8186e-10
0.0268026
-8.60807e-08
-3.46091e-10
-1.69834e-07
-2.86691e-10
0.0255702
-1.51802e-07
-1.51595e-10
0.0255701
-9.16927e-08
-2.37944e-11
0.0255701
-8.60806e-10
9.9537e-11
0.0255701
9.00357e-08
1.27906e-10
0.0255702
1.446e-07
2.69901e-10
0.0255702
1.46195e-07
3.72335e-10
0.0255702
9.47693e-08
1.31937e-10
0.0255702
5.3636e-09
-1.98031e-10
0.0255702
-8.67066e-08
-3.48564e-10
-1.49871e-07
-2.71222e-10
0.0238045
-9.62234e-08
-1.25268e-10
0.0238045
-4.71529e-08
-1.12954e-11
0.0238044
1.4887e-08
9.34146e-11
0.0238045
7.13047e-08
1.14687e-10
0.0238045
1.00512e-07
2.60496e-10
0.0238046
9.35992e-08
3.64723e-10
0.0238046
5.27344e-08
1.14452e-10
0.0238046
-1.1392e-08
-2.11311e-10
0.0238046
-7.19097e-08
-3.42324e-10
-1.06339e-07
-2.45687e-10
0.0202183
-8.89101e-11
0.0202183
-4.59189e-12
0.0202183
7.19601e-11
0.0202184
8.80262e-11
0.0202185
2.40625e-10
0.0202186
3.4286e-10
0.0202186
8.79278e-11
0.0202186
-2.14614e-10
0.0202185
-3.10081e-10
-1.93575e-10
0.0202187
-1.98939e-08
-1.96867e-10
0.0202187
3.09987e-09
2.88068e-11
0.0202186
2.2762e-08
2.86999e-10
0.0202186
3.43467e-08
3.02033e-10
0.0202186
3.37359e-08
3.10493e-10
0.0202186
1.80751e-08
3.20775e-10
0.0202186
-3.57173e-09
5.53953e-12
0.0202186
-2.13207e-08
-3.52617e-10
0.0202186
-3.30996e-08
-3.64748e-10
-3.4222e-08
-2.96339e-10
0.0238047
-3.70037e-08
-2.48051e-10
0.0238047
-4.909e-09
2.74655e-12
0.0238047
2.60159e-08
2.9693e-10
0.0238047
4.81864e-08
3.48297e-10
0.0238047
5.36453e-08
3.62762e-10
0.0238046
3.58621e-08
3.8188e-10
0.0238046
4.47403e-09
4.39152e-11
0.0238046
-2.52821e-08
-3.69543e-10
0.0238046
-4.72271e-08
-4.38488e-10
-5.38865e-08
-3.62385e-10
0.0255703
-5.06731e-08
-2.82479e-10
0.0255703
-1.44902e-08
-2.67827e-11
0.0255703
2.36847e-08
2.82992e-10
0.0255703
5.41491e-08
3.60877e-10
0.0255703
6.60818e-08
3.88202e-10
0.0255703
4.99415e-08
4.1449e-10
0.0255703
1.42855e-08
7.71565e-11
0.0255703
-2.32985e-08
-3.52723e-10
0.0255703
-5.34858e-08
-4.59539e-10
-6.63354e-08
-3.95062e-10
0.0268027
-6.13589e-08
-3.11174e-10
0.0268027
-2.38818e-08
-5.7689e-11
0.0268027
1.889e-08
2.60295e-10
0.0268027
5.57899e-08
3.59995e-10
0.0268027
7.37793e-08
4.03737e-10
0.0268027
6.08439e-08
4.38424e-10
0.0268027
2.39187e-08
1.09845e-10
0.0268027
-1.86498e-08
-3.25382e-10
0.0268027
-5.53411e-08
-4.60391e-10
-7.41385e-08
-4.14587e-10
0.0277537
-6.96257e-08
-3.3469e-10
0.0277537
-3.25161e-08
-8.76834e-11
0.0277537
1.30221e-08
2.3365e-10
0.0277537
5.48909e-08
3.5107e-10
0.0277537
7.8311e-08
4.12172e-10
0.0277537
6.92122e-08
4.57044e-10
0.0277537
3.27585e-08
1.40644e-10
0.0277537
-1.2828e-08
-2.94541e-10
0.0277537
-5.45799e-08
-4.51111e-10
-7.87977e-08
-4.25123e-10
0.0285298
-7.59816e-08
-3.53617e-10
0.0285298
-4.02407e-08
-1.15855e-10
0.0285298
6.78485e-09
2.05387e-10
0.0285298
5.24768e-08
3.37025e-10
0.0285298
8.06824e-08
4.15237e-10
0.0285298
7.56037e-08
4.71525e-10
0.0285298
4.06452e-08
1.68959e-10
0.0285298
-6.59075e-09
-2.62747e-10
0.0285298
-5.22454e-08
-4.35984e-10
-8.12898e-08
-4.29176e-10
0.0291882
-8.08477e-08
-3.68515e-10
0.0291882
-4.70682e-08
-1.41834e-10
0.0291882
5.50194e-10
1.76745e-10
0.0291882
4.9176e-08
3.19616e-10
0.0291882
8.15704e-08
4.14113e-10
0.0291882
8.04695e-08
4.82521e-10
0.0291882
4.7596e-08
1.94662e-10
0.0291882
-3.38393e-10
-2.31147e-10
0.0291882
-4.89835e-08
-4.17306e-10
-8.22813e-08
-4.28392e-10
0.0297626
-8.45653e-08
-3.79851e-10
0.0297626
-5.30779e-08
-1.65464e-10
0.0297626
-5.48551e-09
1.48449e-10
0.0297626
4.53895e-08
2.99976e-10
0.0297626
8.1447e-08
4.09645e-10
0.0297626
8.41688e-08
4.90473e-10
0.0297626
5.36981e-08
2.1779e-10
0.0297626
5.71838e-09
-2.00346e-10
0.0297626
-4.52087e-08
-3.96453e-10
-8.22426e-08
-4.23891e-10
0.0302728
-8.74116e-08
-3.88008e-10
0.0302728
-5.8375e-08
-1.86655e-10
0.0302728
-1.12248e-08
1.21022e-10
0.0302728
4.138e-08
2.78938e-10
0.0302728
8.06521e-08
4.02492e-10
0.0302728
8.69894e-08
4.95698e-10
0.0302728
5.90641e-08
2.38376e-10
0.0302728
1.14753e-08
-1.70761e-10
0.0302728
-4.11938e-08
-3.74354e-10
-8.15151e-08
-4.16497e-10
0.0307331
-8.96089e-08
-3.9335e-10
0.0307331
-6.30679e-08
-2.05437e-10
0.0307331
-1.66272e-08
9.47596e-11
0.0307331
3.73204e-08
2.57077e-10
0.0307331
7.94319e-08
3.93177e-10
0.0307331
8.91596e-08
4.98482e-10
0.0307331
6.38089e-08
2.56519e-10
0.0307331
1.6889e-08
-1.42598e-10
0.0307331
-3.71183e-08
-3.51603e-10
-8.03479e-08
-4.06831e-10
0.0311535
-9.13349e-08
-3.9619e-10
0.0311535
-6.72595e-08
-2.21874e-10
0.0311535
-2.16851e-08
6.98585e-11
0.0311535
3.33242e-08
2.34821e-10
0.0311535
7.79668e-08
3.82121e-10
0.0311535
9.08602e-08
4.99076e-10
0.0311535
6.80405e-08
2.72331e-10
0.0311535
2.19513e-08
-1.15989e-10
0.0311535
-3.31004e-08
-3.28635e-10
-7.89245e-08
-3.95375e-10
0.0315404
-9.27322e-08
-3.9681e-10
0.0315404
-7.10438e-08
-2.36026e-10
0.0315404
-2.64102e-08
4.64895e-11
0.0315404
2.94647e-08
2.12538e-10
0.0315404
7.63895e-08
3.69703e-10
0.0315404
9.22352e-08
4.9771e-10
0.0315404
7.18565e-08
2.85894e-10
0.0315404
2.66744e-08
-9.10609e-11
0.0315404
-2.92161e-08
-3.05806e-10
-7.73802e-08
-3.8254e-10
0.0318996
-9.39135e-08
-3.95484e-10
0.0318996
-7.45027e-08
-2.48023e-10
0.0318996
-3.0824e-08
2.46969e-11
0.0318996
2.57878e-08
1.9046e-10
0.0318996
7.4797e-08
3.5622e-10
0.0318996
9.33976e-08
4.94601e-10
0.0318996
7.53416e-08
2.97325e-10
0.0318996
3.10807e-08
-6.78147e-11
0.0318996
-2.55132e-08
-2.8331e-10
-7.58146e-08
-3.6864e-10
0.0322366
-9.49673e-08
-3.9243e-10
0.0322366
-7.77062e-08
-2.58019e-10
0.0322366
-3.49518e-08
4.4212e-12
0.0322366
2.23214e-08
1.68694e-10
0.0322366
7.32603e-08
3.4187e-10
0.0322366
9.44361e-08
4.89929e-10
0.0322366
7.85677e-08
3.06786e-10
0.0322366
3.51964e-08
-4.61825e-11
0.0322366
-2.20204e-08
-2.61245e-10
-7.43003e-08
-3.5388e-10
0.0325538
-9.59637e-08
-3.87841e-10
0.0325538
-8.07148e-08
-2.66104e-10
0.0325538
-3.88214e-08
-1.45162e-11
0.0325538
1.908e-08
1.47429e-10
0.0325538
7.18307e-08
3.26881e-10
0.0325538
9.54204e-08
4.83883e-10
0.0325538
8.15962e-08
3.1439e-10
0.0325538
3.90505e-08
-2.62145e-11
0.0325538
-1.87524e-08
-2.3981e-10
-7.28899e-08
-3.38496e-10
0.0328526
-9.69577e-08
-3.81945e-10
0.0328526
-8.35799e-08
-2.72381e-10
0.0328526
-4.2462e-08
-3.13779e-11
0.0328526
1.6068e-08
1.26863e-10
0.0328526
7.05441e-08
3.11511e-10
0.0328526
9.6405e-08
4.76667e-10
0.0328526
8.44795e-08
3.20231e-10
0.0328526
4.26724e-08
-7.96202e-12
0.0328526
-1.57138e-08
-2.19186e-10
-7.16205e-08
-3.22748e-10
0.0331351
-9.79918e-08
-3.74945e-10
0.0331351
-8.63445e-08
-2.77001e-10
0.0331351
-4.59002e-08
-4.67068e-11
0.0331351
1.32845e-08
1.07068e-10
0.0331351
6.94257e-08
2.95933e-10
0.0331351
9.74319e-08
4.6846e-10
0.0331351
8.72608e-08
3.24443e-10
0.0331351
4.60898e-08
8.58548e-12
0.0331351
-1.29035e-08
-1.99426e-10
-7.05177e-08
-3.06801e-10
0.0334028
-9.90987e-08
-3.67017e-10
0.0334028
-8.90442e-08
-2.80104e-10
0.0334028
-4.91611e-08
-6.05332e-11
0.0334028
1.07244e-08
8.81152e-11
0.0334028
6.84919e-08
2.80302e-10
0.0334028
9.85335e-08
4.59439e-10
0.0334028
8.9976e-08
3.27182e-10
0.0334028
4.93279e-08
2.35836e-11
0.0334028
-1.03164e-08
-1.80614e-10
-6.95986e-08
-2.90813e-10
0.0336552
-1.00303e-07
-3.58382e-10
0.0336552
-9.17085e-08
-2.81823e-10
0.0336552
-5.22678e-08
-7.28229e-11
0.0336552
8.37923e-09
7.01701e-11
0.0336552
6.77523e-08
2.64852e-10
0.0336552
9.97336e-08
4.49838e-10
0.0336552
9.26546e-08
3.28605e-10
0.0336552
5.24105e-08
3.70767e-11
0.0336552
-7.9434e-09
-1.62936e-10
-6.88726e-08
-2.75023e-10
0.0338909
-1.0162e-07
-3.49324e-10
0.0338909
-9.43614e-08
-2.82333e-10
0.0338909
-5.52422e-08
-8.3569e-11
0.0338909
6.23786e-09
5.34093e-11
0.0338909
6.721e-08
2.49868e-10
0.0338909
1.01049e-07
4.39938e-10
0.0338909
9.53205e-08
3.28884e-10
0.0338909
5.53595e-08
4.89128e-11
0.0338909
-5.77339e-09
-1.46561e-10
-6.83432e-08
-2.59711e-10
0.0341098
-1.03064e-07
-3.40094e-10
0.0341099
-9.70213e-08
-2.8184e-10
0.0341099
-5.81026e-08
-9.28444e-11
0.0341099
4.28927e-09
3.78919e-11
0.0341099
6.68654e-08
2.35545e-10
0.0341099
1.02491e-07
4.29979e-10
0.0341099
9.79919e-08
3.28211e-10
0.0341098
5.81941e-08
5.93086e-11
0.0341098
-3.79509e-09
-1.31541e-10
-6.80106e-08
-2.45069e-10
0.0343114
-1.04639e-07
-3.30934e-10
0.0343114
-9.9702e-08
-2.80555e-10
0.0343114
-6.08645e-08
-1.0075e-10
0.0343114
2.52273e-09
2.36764e-11
0.0343114
6.6716e-08
2.2207e-10
0.0343114
1.04066e-07
4.20209e-10
0.0343114
1.00683e-07
3.26804e-10
0.0343114
6.09278e-08
6.82102e-11
0.0343114
-1.99764e-09
-1.17942e-10
-6.78725e-08
-2.31284e-10
0.0344945
-1.06351e-07
-3.2211e-10
0.0344945
-1.02414e-07
-2.78709e-10
0.0344945
-6.35401e-08
-1.07402e-10
0.0344945
9.28098e-10
1.08144e-11
0.0344945
6.67577e-08
2.09641e-10
0.0344945
1.05779e-07
4.10893e-10
0.0344945
1.03403e-07
3.24894e-10
0.0344945
6.35735e-08
7.57786e-11
0.0344945
-3.70775e-10
-1.05817e-10
-6.79247e-08
-2.18552e-10
0.0346586
-1.08201e-07
-3.13855e-10
0.0346586
-1.05163e-07
-2.76536e-10
0.0346586
-6.61393e-08
-1.12945e-10
0.0346586
-5.03417e-10
-7.05694e-13
0.0346586
6.6986e-08
1.98399e-10
0.0346586
1.0763e-07
4.02261e-10
0.0346586
1.0616e-07
3.22716e-10
0.0346586
6.61409e-08
8.21871e-11
0.0346586
1.09439e-09
-9.51584e-11
-6.81625e-08
-2.07013e-10
0.0348024
-1.10188e-07
-3.06394e-10
0.0348024
-1.07955e-07
-2.74266e-10
0.0348024
-6.86697e-08
-1.17515e-10
0.0348024
-1.77971e-09
-1.08704e-11
0.0348024
6.73956e-08
1.88492e-10
0.0348024
1.09619e-07
3.94553e-10
0.0348024
1.08957e-07
3.20517e-10
0.0348024
6.86378e-08
8.75586e-11
0.0348024
2.40582e-09
-8.59957e-11
-6.85807e-08
-1.96819e-10
0.0349245
-1.12309e-07
-2.99973e-10
0.0349245
-1.10791e-07
-2.72134e-10
0.0349245
-7.11372e-08
-1.21247e-10
0.0349245
-2.90783e-09
-1.96595e-11
0.0349245
6.79806e-08
1.80082e-10
0.0349245
1.11744e-07
3.88019e-10
0.0349245
1.11797e-07
3.18533e-10
0.0349245
7.10702e-08
9.20262e-11
0.0349245
3.57086e-09
-7.83484e-11
-6.91732e-08
-1.88136e-10
0.0350239
-1.14563e-07
-2.94809e-10
0.0350239
-1.13673e-07
-2.70361e-10
0.0350239
-7.35463e-08
-1.24294e-10
0.0350239
-3.89389e-09
-2.71121e-11
0.0350239
6.87353e-08
1.73283e-10
0.0350239
1.14001e-07
3.82861e-10
0.0350239
1.14682e-07
3.16971e-10
0.0350239
7.34425e-08