/*--------------------------------*- C++ -*----------------------------------*\
| =========                 |                                                 |
| \\      /  F ield         | OpenFOAM: The Open Source CFD Toolbox           |
|  \\    /   O peration     | Version:  2.4.0                                 |
|   \\  /    A nd           | Web:      www.OpenFOAM.org                      |
|    \\/     M anipulation  |                                                 |
\*---------------------------------------------------------------------------*/
FoamFile
{
    version     2.0;
    format      ascii;
    class       volVectorField;
    location    "600";
    object      U;
}
// * * * * * * * * * * * * * * * * * * * * * * * * * * * * * * * * * * * * * //

dimensions      [0 1 -1 0 0 0 0];

internalField   nonuniform List<vector> 
6000
(
(0.643906 -6.55641e-09 4.27257e-10)
(0.643907 1.86787e-09 1.22522e-09)
(0.643906 8.80058e-09 1.78314e-09)
(0.643905 1.20083e-08 5.72591e-10)
(0.643904 1.08637e-08 -7.22911e-10)
(0.643903 6.34259e-09 4.83099e-10)
(0.643903 -1.08651e-09 9.96471e-10)
(0.643903 -8.30603e-09 -1.67632e-09)
(0.643904 -1.25892e-08 -2.47137e-09)
(0.643906 -1.17563e-08 -6.20902e-10)
(0.758111 -1.15973e-08 2.1983e-10)
(0.758111 2.33473e-10 1.24323e-09)
(0.758111 1.11093e-08 2.00876e-09)
(0.758111 1.71353e-08 9.34246e-10)
(0.75811 1.70063e-08 -4.73118e-10)
(0.75811 1.15776e-08 5.17854e-10)
(0.758109 1.38123e-09 1.01789e-09)
(0.758109 -1.05722e-08 -1.69272e-09)
(0.75811 -1.81613e-08 -2.75189e-09)
(0.75811 -1.82751e-08 -1.01208e-09)
(0.814341 -1.76807e-08 1.51398e-11)
(0.814341 -3.47307e-09 1.13523e-09)
(0.814341 1.11927e-08 2.02253e-09)
(0.814341 2.07911e-08 1.11718e-09)
(0.814341 2.28886e-08 -2.40917e-10)
(0.81434 1.7748e-08 6.02134e-10)
(0.81434 5.67041e-09 1.0299e-09)
(0.81434 -1.05878e-08 -1.62051e-09)
(0.81434 -2.20625e-08 -2.80497e-09)
(0.81434 -2.44614e-08 -1.23999e-09)
(0.853589 -2.27648e-08 -1.76724e-10)
(0.85359 -7.45136e-09 9.85446e-10)
(0.85359 9.75028e-09 1.9567e-09)
(0.85359 2.23977e-08 1.21577e-09)
(0.85359 2.69098e-08 -3.79367e-11)
(0.85359 2.279e-08 7.12733e-10)
(0.853589 9.88047e-09 1.06402e-09)
(0.853589 -9.0302e-09 -1.52119e-09)
(0.853589 -2.37419e-08 -2.78516e-09)
(0.853589 -2.87011e-08 -1.39674e-09)
(0.883875 -2.66515e-08 -3.47443e-10)
(0.883875 -1.11864e-08 8.22894e-10)
(0.883875 7.51988e-09 1.85047e-09)
(0.883875 2.25202e-08 1.25842e-09)
(0.883875 2.92987e-08 1.3031e-10)
(0.883875 2.65801e-08 8.3029e-10)
(0.883875 1.36904e-08 1.11595e-09)
(0.883874 -6.68316e-09 -1.40939e-09)
(0.883874 -2.3837e-08 -2.72908e-09)
(0.883874 -3.12225e-08 -1.50505e-09)
(0.908592 -2.96274e-08 -4.95893e-10)
(0.908592 -1.45654e-08 6.59993e-10)
(0.908593 4.98444e-09 1.7226e-09)
(0.908593 2.17994e-08 1.26205e-09)
(0.908593 3.06273e-08 2.65824e-10)
(0.908593 2.94522e-08 9.44614e-10)
(0.908592 1.70758e-08 1.17884e-09)
(0.908592 -4.05522e-09 -1.29084e-09)
(0.908592 -2.3044e-08 -2.65189e-09)
(0.908592 -3.26211e-08 -1.57807e-09)
(0.929561 -3.19176e-08 -6.23433e-10)
(0.929562 -1.75754e-08 5.02547e-10)
(0.929562 2.37775e-09 1.58341e-09)
(0.929562 2.06009e-08 1.23789e-09)
(0.929562 3.12572e-08 3.72788e-10)
(0.929562 3.16472e-08 1.05069e-09)
(0.929562 2.00539e-08 1.24715e-09)
(0.929561 -1.38367e-09 -1.1687e-09)
(0.929561 -2.17553e-08 -2.56127e-09)
(0.929561 -3.32793e-08 -1.62443e-09)
(0.947853 -3.36748e-08 -7.31904e-10)
(0.947853 -2.02365e-08 3.53472e-10)
(0.947853 -1.88e-10 1.43913e-09)
(0.947854 1.91266e-08 1.19365e-09)
(0.947854 3.14035e-08 4.55361e-10)
(0.947853 3.33214e-08 1.14612e-09)
(0.947853 2.26604e-08 1.31686e-09)
(0.947853 1.22388e-09 -1.04524e-09)
(0.947853 -2.01853e-08 -2.46168e-09)
(0.947853 -3.34262e-08 -1.64997e-09)
(0.964102 -3.50183e-08 -8.22888e-10)
(0.964102 -2.25813e-08 2.14581e-10)
(0.964103 -2.65031e-09 1.29407e-09)
(0.964103 1.75088e-08 1.13495e-09)
(0.964103 3.12173e-08 5.17043e-10)
(0.964103 3.4594e-08 1.22969e-09)
(0.964103 2.49388e-08 1.38492e-09)
(0.964102 3.71042e-09 -9.22478e-10)
(0.964102 -1.84725e-08 -2.35626e-09)
(0.964102 -3.32231e-08 -1.65878e-09)
(0.978762 -3.60505e-08 -8.9809e-10)
(0.978762 -2.46546e-08 8.65366e-11)
(0.978762 -4.98132e-09 1.15094e-09)
(0.978762 1.58355e-08 1.0659e-09)
(0.978762 3.0813e-08 5.61033e-10)
(0.978762 3.55658e-08 1.30126e-09)
(0.978762 2.69408e-08 1.44932e-09)
(0.978762 6.05293e-09 -8.01865e-10)
(0.978762 -1.67077e-08 -2.24718e-09)
(0.978762 -3.2791e-08 -1.65398e-09)
(0.992149 -3.68543e-08 -9.59043e-10)
(0.992149 -2.65011e-08 -3.04513e-11)
(0.992149 -7.17167e-09 1.01153e-09)
(0.99215 1.41652e-08 9.89615e-10)
(0.99215 3.02752e-08 5.90088e-10)
(0.99215 3.63176e-08 1.36115e-09)
(0.99215 2.87148e-08 1.50869e-09)
(0.992149 8.24594e-09 -6.84574e-10)
(0.992149 -1.49504e-08 -2.13605e-09)
(0.992149 -3.22194e-08 -1.638e-09)
(1.00447 -3.74954e-08 -1.00704e-09)
(1.00447 -2.81589e-08 -1.36257e-10)
(1.00447 -9.21877e-09 8.7737e-10)
(1.00447 1.25393e-08 9.0864e-10)
(1.00447 2.9668e-08 6.06538e-10)
(1.00447 3.69131e-08 1.40989e-09)
(1.00447 3.03013e-08 1.56202e-09)
(1.00447 1.02899e-08 -5.71763e-10)
(1.00447 -1.32422e-08 -2.0244e-09)
(1.00447 -3.15754e-08 -1.61285e-09)
(1.01591 -3.80269e-08 -1.04344e-09)
(1.01591 -2.96645e-08 -2.313e-10)
(1.01591 -1.11286e-08 7.49115e-10)
(1.01591 1.09838e-08 8.24755e-10)
(1.01591 2.90385e-08 6.12451e-10)
(1.01591 3.74038e-08 1.44832e-09)
(1.01591 3.17375e-08 1.60891e-09)
(1.01591 1.21929e-08 -4.64025e-10)
(1.01591 -1.16084e-08 -1.91319e-09)
(1.01591 -3.09083e-08 -1.58013e-09)
(1.02664 -3.8492e-08 -1.0695e-09)
(1.02664 -3.10524e-08 -3.16311e-10)
(1.02664 -1.29143e-08 6.26816e-10)
(1.02664 9.51142e-09 7.39086e-10)
(1.02664 2.84204e-08 6.0959e-10)
(1.02664 3.78312e-08 1.47747e-09)
(1.02664 3.30583e-08 1.64928e-09)
(1.02664 1.39698e-08 -3.6152e-10)
(1.02664 -1.0061e-08 -1.80288e-09)
(1.02664 -3.02527e-08 -1.54106e-09)
(1.03675 -3.89238e-08 -1.08619e-09)
(1.03675 -3.2349e-08 -3.91558e-10)
(1.03675 -1.45854e-08 5.11019e-10)
(1.03675 8.13295e-09 6.5294e-10)
(1.03675 2.78398e-08 5.99492e-10)
(1.03675 3.82275e-08 1.49814e-09)
(1.03675 3.42901e-08 1.68294e-09)
(1.03675 1.56312e-08 -2.64861e-10)
(1.03675 -8.60996e-09 -1.69439e-09)
(1.03675 -2.96356e-08 -1.49687e-09)
(1.04626 -3.93484e-08 -1.0945e-09)
(1.04626 -3.35757e-08 -4.57324e-10)
(1.04626 -1.61506e-08 4.02282e-10)
(1.04626 6.85541e-09 5.67574e-10)
(1.04626 2.73167e-08 5.83593e-10)
(1.04626 3.86178e-08 1.51121e-09)
(1.04626 3.54541e-08 1.70994e-09)
(1.04626 1.71864e-08 -1.74653e-10)
(1.04626 -7.26181e-09 -1.58876e-09)
(1.04626 -2.90772e-08 -1.4488e-09)
(1.05526 -3.9787e-08 -1.09544e-09)
(1.05526 -3.4754e-08 -5.14321e-10)
(1.05526 -1.76235e-08 3.00473e-10)
(1.05526 5.67818e-09 4.83656e-10)
(1.05526 2.68634e-08 5.63158e-10)
(1.05526 3.90227e-08 1.51772e-09)
(1.05526 3.65717e-08 1.73059e-09)
(1.05526 1.86496e-08 -9.09244e-11)
(1.05526 -6.01522e-09 -1.48641e-09)
(1.05526 -2.85899e-08 -1.3978e-09)
(1.06378 -4.02565e-08 -1.08998e-09)
(1.06378 -3.59026e-08 -5.6319e-10)
(1.06378 -1.90172e-08 2.05483e-10)
(1.06378 4.59889e-09 4.01813e-10)
(1.06378 2.64887e-08 5.39369e-10)
(1.06378 3.94586e-08 1.51864e-09)
(1.06378 3.76608e-08 1.74526e-09)
(1.06378 2.00338e-08 -1.37232e-11)
(1.06378 -4.86726e-09 -1.3878e-09)
(1.06378 -2.81826e-08 -1.34479e-09)
(1.07182 -4.07695e-08 -1.07912e-09)
(1.07182 -3.70349e-08 -6.04354e-10)
(1.07182 -2.03411e-08 1.17654e-10)
(1.07182 3.61583e-09 3.23062e-10)
(1.07182 2.61993e-08 5.13518e-10)
(1.07182 3.99379e-08 1.51501e-09)
(1.07182 3.8735e-08 1.75428e-09)
(1.07182 2.13487e-08 5.65647e-11)
(1.07182 -3.81589e-09 -1.2939e-09)
(1.07182 -2.78616e-08 -1.29099e-09)
(1.07933 -4.13339e-08 -1.06406e-09)
(1.07933 -3.81606e-08 -6.38376e-10)
(1.07933 -2.16027e-08 3.73161e-11)
(1.07933 2.72668e-09 2.48462e-10)
(1.07933 2.59987e-08 4.86946e-10)
(1.07933 4.04684e-08 1.508e-09)
(1.07933 3.98034e-08 1.75825e-09)
(1.07933 2.26014e-08 1.19633e-10)
(1.07933 -2.85865e-09 -1.20578e-09)
(1.07933 -2.76304e-08 -1.23776e-09)
(1.0863 -4.19567e-08 -1.04598e-09)
(1.0863 -3.92907e-08 -6.66157e-10)
(1.0863 -2.28126e-08 -3.58023e-11)
(1.0863 1.92501e-09 1.7854e-10)
(1.0863 2.58871e-08 4.60807e-10)
(1.0863 4.10569e-08 1.49881e-09)
(1.0863 4.0877e-08 1.75795e-09)
(1.0863 2.38026e-08 1.75696e-10)
(1.0863 -1.98878e-09 -1.12392e-09)
(1.0863 -2.74891e-08 -1.18616e-09)
(1.09272 -4.26424e-08 -1.02607e-09)
(1.09272 -4.04328e-08 -6.88587e-10)
(1.09272 -2.39787e-08 -1.01983e-10)
(1.09272 1.20575e-09 1.138e-10)
(1.09272 2.58643e-08 4.36227e-10)
(1.09272 4.17079e-08 1.48867e-09)
(1.09272 4.19631e-08 1.75422e-09)
(1.09272 2.49603e-08 2.24988e-10)
(1.09272 -1.20107e-09 -1.0488e-09)
(1.09272 -2.74371e-08 -1.13724e-09)
(1.09855 -4.33921e-08 -1.00558e-09)
(1.09855 -4.15904e-08 -7.0665e-10)
(1.09855 -2.51051e-08 -1.61556e-10)
(1.09855 5.65533e-10 5.47154e-11)
(1.09855 2.59289e-08 4.143e-10)
(1.09855 4.24226e-08 1.47888e-09)
(1.09855 4.3065e-08 1.74803e-09)
(1.09855 2.60789e-08 2.67816e-10)
(1.09855 -4.92167e-10 -9.80911e-10)
(1.09855 -2.74731e-08 -1.0921e-09)
(1.10378 -4.42077e-08 -9.85709e-10)
(1.10378 -4.27683e-08 -7.21438e-10)
(1.10378 -2.61982e-08 -2.15141e-10)
(1.10378 -7.51219e-13 1.45217e-12)
(1.10378 2.60791e-08 3.95973e-10)
(1.10378 4.32027e-08 1.47067e-09)
(1.10378 4.41876e-08 1.74039e-09)
(1.10378 2.71645e-08 3.04714e-10)
(1.10378 1.43197e-10 -9.20399e-10)
(1.10378 -2.75951e-08 -1.0516e-09)
(1.10836 -4.50898e-08 -9.67628e-10)
(1.10836 -4.397e-08 -7.33946e-10)
(1.10836 -2.72627e-08 -2.63215e-10)
(1.10836 -4.97222e-10 -4.57189e-11)
(1.10836 2.63127e-08 3.82189e-10)
(1.10836 4.40489e-08 1.46526e-09)
(1.10836 4.5334e-08 1.73227e-09)
(1.10836 2.82217e-08 3.36116e-10)
(1.10836 7.09168e-10 -8.67551e-10)
(1.10836 -2.78006e-08 -1.01666e-09)
(1.11225 -4.60357e-08 -9.5252e-10)
(1.11225 -4.51942e-08 -7.45176e-10)
(1.11225 -2.82994e-08 -3.06208e-10)
(1.11225 -9.26472e-10 -8.65056e-11)
(1.11225 2.66266e-08 3.73836e-10)
(1.11225 4.49586e-08 1.46383e-09)
(1.11225 4.65031e-08 1.72472e-09)
(1.11225 2.92511e-08 3.62463e-10)
(1.11225 1.20814e-09 -8.22685e-10)
(1.11225 -2.80868e-08 -9.88209e-10)
(1.11541 -4.70428e-08 -9.4143e-10)
(1.11541 -4.644e-08 -7.56187e-10)
(1.11541 -2.93095e-08 -3.44796e-10)
(1.11541 -1.29136e-09 -1.20909e-10)
(1.11541 2.70175e-08 3.7163e-10)
(1.11541 4.59293e-08 1.46748e-09)
(1.11541 4.76942e-08 1.71874e-09)
(1.11541 3.0254e-08 3.84373e-10)
(1.11541 1.64294e-09 -7.85817e-10)
(1.11541 -2.845e-08 -9.66922e-10)
(1.11783 -4.81116e-08 -9.3522e-10)
(1.11783 -4.77101e-08 -7.67877e-10)
(1.11783 -3.02966e-08 -3.79654e-10)
(1.11783 -1.59491e-09 -1.49002e-10)
(1.11783 2.74837e-08 3.76234e-10)
(1.11783 4.69612e-08 1.47718e-09)
(1.11783 4.89094e-08 1.71514e-09)
(1.11783 3.12339e-08 4.02389e-10)
(1.11783 2.01697e-09 -7.56886e-10)
(1.11783 -2.88886e-08 -9.53354e-10)
(1.11947 -4.92424e-08 -9.34606e-10)
(1.11947 -4.90064e-08 -7.80765e-10)
(1.11947 -3.12636e-08 -4.10987e-10)
(1.11947 -1.83961e-09 -1.70538e-10)
(1.11947 2.80239e-08 3.88266e-10)
(1.11947 4.80547e-08 1.49367e-09)
(1.11947 5.01508e-08 1.71446e-09)
(1.11947 3.21935e-08 4.16699e-10)
(1.11947 2.33286e-09 -7.36153e-10)
(1.11947 -2.9401e-08 -9.48119e-10)
(1.12029 -5.04273e-08 -9.40073e-10)
(1.12029 -5.03215e-08 -7.95166e-10)
(1.12029 -3.22065e-08 -4.38734e-10)
(1.12029 -2.02651e-09 -1.85214e-10)
(1.12029 2.86326e-08 4.07986e-10)
(1.12029 4.9202e-08 1.51725e-09)
(1.12029 5.14111e-08 1.71712e-09)
(1.12029 3.3129e-08 4.27402e-10)
(1.12029 2.59124e-09 -7.23893e-10)
(1.12029 -2.99819e-08 -9.51634e-10)
(1.12029 -5.166e-08 -9.51895e-10)
(1.12029 -5.16499e-08 -8.11559e-10)
(1.12029 -3.31228e-08 -4.63283e-10)
(1.12029 -2.15696e-09 -1.93231e-10)
(1.12029 2.93052e-08 4.35468e-10)
(1.12029 5.0397e-08 1.54821e-09)
(1.12029 5.26851e-08 1.72348e-09)
(1.12029 3.40378e-08 4.34861e-10)
(1.12029 2.79334e-09 -7.19919e-10)
(1.12029 -3.06267e-08 -9.63972e-10)
(1.11947 -5.29471e-08 -9.70241e-10)
(1.11947 -5.30001e-08 -8.30154e-10)
(1.11947 -3.40194e-08 -4.84976e-10)
(1.11947 -2.23368e-09 -1.94702e-10)
(1.11947 3.0044e-08 4.71138e-10)
(1.11947 5.16458e-08 1.58702e-09)
(1.11947 5.39806e-08 1.73361e-09)
(1.11947 3.49267e-08 4.39121e-10)
(1.11947 2.94237e-09 -7.24208e-10)
(1.11947 -3.13375e-08 -9.85337e-10)
(1.11783 -5.42877e-08 -9.94807e-10)
(1.11783 -5.43717e-08 -8.50401e-10)
(1.11783 -3.48968e-08 -5.03384e-10)
(1.11783 -2.2578e-09 -1.89364e-10)
(1.11783 3.08478e-08 5.15026e-10)
(1.11783 5.29477e-08 1.63341e-09)
(1.11783 5.52975e-08 1.74699e-09)
(1.11783 3.57963e-08 4.39704e-10)
(1.11783 3.03937e-09 -7.37023e-10)
(1.11783 -3.2113e-08 -1.01571e-09)
(1.11541 -5.56747e-08 -1.02481e-09)
(1.11541 -5.57578e-08 -8.71581e-10)
(1.11541 -3.57506e-08 -5.18007e-10)
(1.11541 -2.22943e-09 -1.77231e-10)
(1.11541 3.17123e-08 5.66424e-10)
(1.11541 5.42957e-08 1.68639e-09)
(1.11541 5.6629e-08 1.76291e-09)
(1.11541 3.66423e-08 4.36258e-10)
(1.11541 3.08405e-09 -7.58247e-10)
(1.11541 -3.2949e-08 -1.05449e-09)
(1.11225 -5.71093e-08 -1.05948e-09)
(1.11225 -5.71597e-08 -8.93117e-10)
(1.11225 -3.65822e-08 -5.28576e-10)
(1.11225 -2.1491e-09 -1.58481e-10)
(1.11225 3.26378e-08 6.2476e-10)
(1.11225 5.5691e-08 1.74514e-09)
(1.11225 5.79765e-08 1.78064e-09)
(1.11225 3.74659e-08 4.28502e-10)
(1.11225 3.07694e-09 -7.87673e-10)
(1.11225 -3.38459e-08 -1.10109e-09)
(1.10836 -5.85969e-08 -1.09803e-09)
(1.10836 -5.8583e-08 -9.14242e-10)
(1.10836 -3.73949e-08 -5.34681e-10)
(1.10836 -2.01679e-09 -1.33122e-10)
(1.10836 3.36278e-08 6.89717e-10)
(1.10836 5.71388e-08 1.80903e-09)
(1.10836 5.93454e-08 1.79937e-09)
(1.10836 3.82705e-08 4.15897e-10)
(1.10836 3.01821e-09 -8.25337e-10)
(1.10836 -3.4807e-08 -1.15508e-09)
(1.10378 -6.01415e-08 -1.1394e-09)
(1.10378 -6.00308e-08 -9.33894e-10)
(1.10378 -3.81899e-08 -5.35734e-10)
(1.10378 -1.83121e-09 -1.01192e-10)
(1.10378 3.46855e-08 7.60699e-10)
(1.10378 5.86432e-08 1.87706e-09)
(1.10378 6.07388e-08 1.818e-09)
(1.10378 3.90572e-08 3.97799e-10)
(1.10377 2.90656e-09 -8.71211e-10)
(1.10378 -3.58355e-08 -1.21584e-09)
(1.09855 -6.17457e-08 -1.1823e-09)
(1.09855 -6.15041e-08 -9.50961e-10)
(1.09855 -3.89661e-08 -5.31219e-10)
(1.09855 -1.58954e-09 -6.29664e-11)
(1.09855 3.58144e-08 8.36705e-10)
(1.09855 6.0207e-08 1.94789e-09)
(1.09855 6.21578e-08 1.83539e-09)
(1.09855 3.98249e-08 3.7371e-10)
(1.09855 2.73906e-09 -9.24967e-10)
(1.09855 -3.69348e-08 -1.28235e-09)
(1.09272 -6.34167e-08 -1.22549e-09)
(1.09272 -6.30067e-08 -9.64437e-10)
(1.09272 -3.97227e-08 -5.20724e-10)
(1.09272 -1.28636e-09 -1.87758e-11)
(1.09272 3.70223e-08 9.16813e-10)
(1.09272 6.18372e-08 2.0203e-09)
(1.09272 6.36061e-08 1.8505e-09)
(1.09272 4.05726e-08 3.43201e-10)
(1.09272 2.51039e-09 -9.86271e-10)
(1.09272 -3.81127e-08 -1.35366e-09)
(1.0863 -6.51654e-08 -1.26779e-09)
(1.0863 -6.45445e-08 -9.73161e-10)
(1.0863 -4.04581e-08 -5.03811e-10)
(1.0863 -9.13251e-10 3.10982e-11)
(1.0863 3.83212e-08 1.00021e-09)
(1.0863 6.35449e-08 2.09321e-09)
(1.0863 6.50893e-08 1.86229e-09)
(1.0863 4.12985e-08 3.05778e-10)
(1.0863 2.2123e-09 -1.05488e-09)
(1.0863 -3.93809e-08 -1.42893e-09)
(1.07933 -6.69989e-08 -1.30784e-09)
(1.07933 -6.61178e-08 -9.7655e-10)
(1.07933 -4.11655e-08 -4.80174e-10)
(1.07933 -4.59007e-10 8.61281e-11)
(1.07933 3.97226e-08 1.08573e-09)
(1.07933 6.53369e-08 2.16525e-09)
(1.07933 6.66074e-08 1.86972e-09)
(1.07933 4.19959e-08 2.6116e-10)
(1.07933 1.8337e-09 -1.13025e-09)
(1.07933 -4.07506e-08 -1.50699e-09)
(1.07182 -6.89263e-08 -1.34443e-09)
(1.07182 -6.77258e-08 -9.73185e-10)
(1.07182 -4.18345e-08 -4.4972e-10)
(1.07182 9.27589e-11 1.45705e-10)
(1.07182 4.12421e-08 1.17229e-09)
(1.07182 6.72224e-08 2.23527e-09)
(1.07182 6.81594e-08 1.87196e-09)
(1.07182 4.2654e-08 2.09182e-10)
(1.07182 1.35855e-09 -1.21179e-09)
(1.07182 -4.22373e-08 -1.58675e-09)
(1.06378 -7.09599e-08 -1.37633e-09)
(1.06378 -6.93673e-08 -9.62781e-10)
(1.06378 -4.24505e-08 -4.12284e-10)
(1.06378 7.64247e-10 2.09203e-10)
(1.06378 4.2901e-08 1.25883e-09)
(1.06378 6.92132e-08 2.30213e-09)
(1.06378 6.97435e-08 1.8682e-09)
(1.06378 4.32585e-08 1.49705e-10)
(1.06378 7.65259e-10 -1.29895e-09)
(1.06378 -4.38619e-08 -1.66714e-09)
(1.05526 -7.31021e-08 -1.40226e-09)
(1.05526 -7.10295e-08 -9.44241e-10)
(1.05526 -4.29902e-08 -3.6812e-10)
(1.05526 1.58053e-09 2.75539e-10)
(1.05526 4.4716e-08 1.34379e-09)
(1.05526 7.13113e-08 2.36446e-09)
(1.05526 7.13462e-08 1.85781e-09)
(1.05526 4.3786e-08 8.30586e-11)
(1.05526 2.93085e-11 -1.39058e-09)
(1.05526 -4.5641e-08 -1.74666e-09)
(1.04626 -7.53511e-08 -1.42115e-09)
(1.04626 -7.26924e-08 -9.17299e-10)
(1.04626 -4.34227e-08 -3.17642e-10)
(1.04626 2.57115e-09 3.43627e-10)
(1.04626 4.6704e-08 1.42586e-09)
(1.04626 7.35141e-08 2.42122e-09)
(1.04626 7.29472e-08 1.84044e-09)
(1.04626 4.42064e-08 9.66888e-12)
(1.04626 -8.78035e-10 -1.48567e-09)
(1.04626 -4.75911e-08 -1.82405e-09)
(1.03674 -7.77029e-08 -1.43212e-09)
(1.03674 -7.433e-08 -8.81515e-10)
(1.03674 -4.37098e-08 -2.61092e-10)
(1.03674 3.77199e-09 4.12669e-10)
(1.03674 4.88838e-08 1.50416e-09)
(1.03674 7.58165e-08 2.47182e-09)
(1.03674 7.45195e-08 1.8158e-09)
(1.03674 4.44817e-08 -7.03443e-11)
(1.03674 -1.99146e-09 -1.58367e-09)
(1.03674 -4.97314e-08 -1.89847e-09)
(1.02664 -8.01446e-08 -1.43423e-09)
(1.02664 -7.59031e-08 -8.36336e-10)
(1.02664 -4.3801e-08 -1.98694e-10)
(1.02664 5.22505e-09 4.8184e-10)
(1.02664 5.12723e-08 1.57779e-09)
(1.02664 7.8204e-08 2.51565e-09)
(1.02664 7.60237e-08 1.78358e-09)
(1.02664 4.45629e-08 -1.56918e-10)
(1.02664 -3.35158e-09 -1.68409e-09)
(1.02664 -5.20793e-08 -1.96908e-09)
(1.01591 -8.26418e-08 -1.42651e-09)
(1.01591 -7.73512e-08 -7.81523e-10)
(1.01591 -4.36327e-08 -1.31129e-10)
(1.01591 6.9714e-09 5.49842e-10)
(1.01591 5.3872e-08 1.64548e-09)
(1.01591 8.06402e-08 2.55198e-09)
(1.01591 7.73992e-08 1.74373e-09)
(1.01591 4.43886e-08 -2.49493e-10)
(1.01591 -4.99831e-09 -1.7859e-09)
(1.01591 -5.46385e-08 -2.03467e-09)
(1.00447 -8.51426e-08 -1.40805e-09)
(1.00447 -7.85954e-08 -7.16981e-10)
(1.00447 -4.31289e-08 -5.92253e-11)
(1.00447 9.0529e-09 6.1534e-10)
(1.00447 5.66746e-08 1.70608e-09)
(1.00447 8.30708e-08 2.58033e-09)
(1.00447 7.85677e-08 1.69635e-09)
(1.00447 4.3886e-08 -3.47524e-10)
(1.00447 -6.97248e-09 -1.88818e-09)
(1.00447 -5.7403e-08 -2.09412e-09)
(0.992148 -8.75764e-08 -1.37776e-09)
(0.992148 -7.95339e-08 -6.42302e-10)
(0.992148 -4.21969e-08 1.6393e-11)
(0.992148 1.15166e-08 6.77147e-10)
(0.992147 5.96629e-08 1.75871e-09)
(0.992147 8.54224e-08 2.60043e-09)
(0.992147 7.9429e-08 1.64135e-09)
(0.992147 4.29662e-08 -4.50951e-10)
(0.992147 -9.3203e-09 -1.99046e-09)
(0.992147 -6.03592e-08 -2.14649e-09)
(0.97876 -8.98304e-08 -1.33439e-09)
(0.97876 -8.00267e-08 -5.57297e-10)
(0.97876 -4.07248e-08 9.46469e-11)
(0.97876 1.44005e-08 7.33618e-10)
(0.97876 6.27872e-08 1.80217e-09)
(0.978759 8.75793e-08 2.61192e-09)
(0.978759 7.9847e-08 1.57879e-09)
(0.978759 4.15229e-08 -5.5939e-10)
(0.97876 -1.20805e-08 -2.09184e-09)
(0.97876 -6.3463e-08 -2.19042e-09)
(0.964101 -9.17391e-08 -1.27671e-09)
(0.964101 -7.98911e-08 -4.62312e-10)
(0.964101 -3.8586e-08 1.73767e-10)
(0.9641 1.77237e-08 7.82589e-10)
(0.9641 6.59535e-08 1.83508e-09)
(0.9641 8.93737e-08 2.61458e-09)
(0.9641 7.96455e-08 1.50904e-09)
(0.9641 3.94364e-08 -6.72002e-10)
(0.9641 -1.52753e-08 -2.19089e-09)
(0.9641 -6.6629e-08 -2.22417e-09)
(0.947851 -9.30716e-08 -1.20329e-09)
(0.947851 -7.88919e-08 -3.57899e-10)
(0.947851 -3.5636e-08 2.51547e-10)
(0.947851 2.14809e-08 8.2159e-10)
(0.94785 6.90125e-08 1.85614e-09)
(0.94785 9.05749e-08 2.60842e-09)
(0.94785 7.86006e-08 1.43255e-09)
(0.94785 3.65703e-08 -7.88006e-10)
(0.947851 -1.89066e-08 -2.28609e-09)
(0.947851 -6.97197e-08 -2.2457e-09)
(0.92956 -9.35009e-08 -1.11249e-09)
(0.929559 -7.67256e-08 -2.45087e-10)
(0.929559 -3.17195e-08 3.25007e-10)
(0.929559 2.56156e-08 8.47639e-10)
(0.929558 7.17254e-08 1.86404e-09)
(0.929558 9.08592e-08 2.59364e-09)
(0.929559 7.64267e-08 1.34978e-09)
(0.929559 3.27781e-08 -9.06466e-10)
(0.929559 -2.29322e-08 -2.37545e-09)
(0.929559 -7.25123e-08 -2.25242e-09)
(0.90859 -9.25724e-08 -1.00268e-09)
(0.90859 -7.3018e-08 -1.26051e-10)
(0.90859 -2.66975e-08 3.89837e-10)
(0.908589 2.99758e-08 8.57027e-10)
(0.908589 7.3719e-08 1.85751e-09)
(0.908589 8.97839e-08 2.57076e-09)
(0.908589 7.27759e-08 1.26148e-09)
(0.90859 2.79281e-08 -1.02589e-09)
(0.90859 -2.7226e-08 -2.45599e-09)
(0.90859 -7.4654e-08 -2.24082e-09)
(0.883873 -8.9613e-08 -8.71776e-10)
(0.883872 -6.72766e-08 -4.17491e-12)
(0.883872 -2.04604e-08 4.40151e-10)
(0.883871 3.42475e-08 8.45205e-10)
(0.883871 7.4396e-08 1.83536e-09)
(0.883871 8.6705e-08 2.5404e-09)
(0.883872 6.71947e-08 1.16808e-09)
(0.883872 2.19119e-08 -1.14454e-09)
(0.883873 -3.15226e-08 -2.52348e-09)
(0.883873 -7.55705e-08 -2.20594e-09)
(0.853587 -8.34407e-08 -7.17604e-10)
(0.853586 -5.87428e-08 1.14516e-10)
(0.853585 -1.29767e-08 4.67255e-10)
(0.853585 3.77234e-08 8.06431e-10)
(0.853585 7.26375e-08 1.79643e-09)
(0.853586 8.05219e-08 2.50284e-09)
(0.853586 5.89945e-08 1.0695e-09)
(0.853587 1.46821e-08 -1.25944e-09)
(0.853587 -3.522e-08 -2.5707e-09)
(0.853587 -7.41633e-08 -2.14011e-09)
(0.814338 -7.20995e-08 -5.3885e-10)
(0.814336 -4.63435e-08 2.18686e-10)
(0.814336 -4.50526e-09 4.57701e-10)
(0.814335 3.89007e-08 7.33662e-10)
(0.814336 6.64408e-08 1.73927e-09)
(0.814337 6.9466e-08 2.45614e-09)
(0.814338 4.72351e-08 9.64171e-10)
(0.814339 6.41004e-09 -1.36428e-09)
(0.814339 -3.70142e-08 -2.58365e-09)
(0.814339 -6.84214e-08 -2.03057e-09)
(0.758106 -5.45641e-08 -3.37016e-10)
(0.758105 -3.02715e-08 2.84842e-10)
(0.758103 3.42374e-09 3.89383e-10)
(0.758103 3.56318e-08 6.16968e-10)
(0.758105 5.40341e-08 1.65824e-09)
(0.758106 5.26978e-08 2.38822e-09)
(0.758108 3.21836e-08 8.4607e-10)
(0.758109 -1.70061e-09 -1.44236e-09)
(0.758109 -3.4878e-08 -2.52925e-09)
(0.758108 -5.64444e-08 -1.85169e-09)
(0.643897 -3.56725e-08 -9.14896e-11)
(0.643895 -1.67878e-08 2.62963e-10)
(0.643894 6.21683e-09 2.15115e-10)
(0.643896 2.65242e-08 4.16757e-10)
(0.643899 3.72375e-08 1.49433e-09)
(0.643902 3.4527e-08 2.20253e-09)
(0.643905 1.91797e-08 6.64688e-10)
(0.643905 -4.871e-09 -1.43153e-09)
(0.643904 -2.66916e-08 -2.2678e-09)
(0.643901 -3.95892e-08 -1.48733e-09)
(0.643906 -7.09001e-09 -8.61273e-10)
(0.643907 1.69628e-09 1.46084e-09)
(0.643906 8.64253e-09 3.90631e-09)
(0.643905 1.28147e-08 2.98481e-09)
(0.643904 1.23829e-08 1.96332e-09)
(0.643903 6.29201e-09 3.01724e-09)
(0.643903 -1.92941e-09 -2.28198e-11)
(0.643903 -8.13831e-09 -5.08089e-09)
(0.643904 -1.2247e-08 -5.02144e-09)
(0.643905 -1.24932e-08 -2.40272e-09)
(0.758111 -1.23684e-08 -1.44155e-09)
(0.758111 -1.35706e-10 1.30359e-09)
(0.758111 1.07983e-08 4.2602e-09)
(0.758111 1.82138e-08 3.73666e-09)
(0.75811 1.92036e-08 2.67147e-09)
(0.75811 1.17161e-08 3.50421e-09)
(0.758109 -3.84524e-11 3.05006e-10)
(0.758109 -1.03685e-08 -5.24819e-09)
(0.758109 -1.77355e-08 -5.82371e-09)
(0.75811 -1.93511e-08 -3.31223e-09)
(0.814341 -1.86863e-08 -1.90347e-09)
(0.814341 -4.05773e-09 9.94288e-10)
(0.814341 1.07104e-08 4.20027e-09)
(0.814341 2.19342e-08 4.02803e-09)
(0.814341 2.55977e-08 3.10518e-09)
(0.81434 1.8296e-08 3.82739e-09)
(0.81434 3.92853e-09 6.20353e-10)
(0.81434 -1.04802e-08 -5.04631e-09)
(0.81434 -2.1597e-08 -6.04693e-09)
(0.81434 -2.57035e-08 -3.81642e-09)
(0.853589 -2.39282e-08 -2.31154e-09)
(0.85359 -8.18271e-09 6.30581e-10)
(0.85359 9.13189e-09 3.98901e-09)
(0.85359 2.3518e-08 4.128e-09)
(0.85359 2.98991e-08 3.41846e-09)
(0.85359 2.36801e-08 4.11249e-09)
(0.853589 8.14881e-09 9.44336e-10)
(0.853589 -9.01083e-09 -4.73277e-09)
(0.853589 -2.32918e-08 -6.06211e-09)
(0.853589 -3.0025e-08 -4.14936e-09)
(0.883875 -2.79092e-08 -2.66327e-09)
(0.883875 -1.20195e-08 2.57074e-10)
(0.883875 6.80256e-09 3.70532e-09)
(0.883875 2.35849e-08 4.11164e-09)
(0.883875 3.24093e-08 3.64047e-09)
(0.883875 2.77228e-08 4.36394e-09)
(0.883875 1.20821e-08 1.26344e-09)
(0.883874 -6.71819e-09 -4.37666e-09)
(0.883874 -2.34314e-08 -5.96574e-09)
(0.883874 -3.2587e-08 -4.36572e-09)
(0.908592 -3.09435e-08 -2.96106e-09)
(0.908592 -1.54733e-08 -1.06759e-10)
(0.908593 4.1944e-09 3.38564e-09)
(0.908593 2.28014e-08 4.01827e-09)
(0.908593 3.37779e-08 3.7895e-09)
(0.908593 3.0781e-08 4.58139e-09)
(0.908592 1.56142e-08 1.57009e-09)
(0.908592 -4.11529e-09 -4.00527e-09)
(0.908592 -2.26917e-08 -5.80247e-09)
(0.908592 -3.40104e-08 -4.49653e-09)
(0.929561 -3.32719e-08 -3.20961e-09)
(0.929561 -1.85392e-08 -4.51874e-10)
(0.929562 1.53348e-09 3.04963e-09)
(0.929562 2.15425e-08 3.87204e-09)
(0.929562 3.44062e-08 3.87952e-09)
(0.929562 3.31144e-08 4.76536e-09)
(0.929562 1.87398e-08 1.85999e-09)
(0.929561 -1.44839e-09 -3.63151e-09)
(0.929561 -2.14563e-08 -5.59681e-09)
(0.929561 -3.46868e-08 -4.56248e-09)
(0.947853 -3.50552e-08 -3.4137e-09)
(0.947853 -2.12424e-08 -7.7377e-10)
(0.947853 -1.07306e-09 2.709e-09)
(0.947853 2.0013e-08 3.68887e-09)
(0.947854 3.45284e-08 3.92121e-09)
(0.947853 3.48925e-08 4.91698e-09)
(0.947853 2.14877e-08 2.13049e-09)
(0.947853 1.16728e-09 -3.26253e-09)
(0.947853 -1.99363e-08 -5.36358e-09)
(0.947853 -3.48486e-08 -4.57781e-09)
(0.964102 -3.64169e-08 -3.57732e-09)
(0.964102 -2.36197e-08 -1.06955e-09)
(0.964103 -3.56653e-09 2.37208e-09)
(0.964103 1.83453e-08 3.48031e-09)
(0.964103 3.43058e-08 3.92288e-09)
(0.964103 3.62442e-08 5.03748e-09)
(0.964103 2.38984e-08 2.37934e-09)
(0.964102 3.66929e-09 -2.90364e-09)
(0.964102 -1.82691e-08 -5.1131e-09)
(0.964102 -3.4658e-08 -4.55286e-09)
(0.978762 -3.7462e-08 -3.70454e-09)
(0.978762 -2.57189e-08 -1.33842e-09)
(0.978762 -5.9221e-09 2.04386e-09)
(0.978762 1.66267e-08 3.25456e-09)
(0.978762 3.38589e-08 3.89142e-09)
(0.978762 3.72777e-08 5.12884e-09)
(0.978762 2.60226e-08 2.60569e-09)
(0.978762 6.03109e-09 -2.55781e-09)
(0.978762 -1.65455e-08 -4.85225e-09)
(0.978762 -3.42361e-08 -4.49555e-09)
(0.992149 -3.82749e-08 -3.79906e-09)
(0.992149 -2.75868e-08 -1.58035e-09)
(0.992149 -8.13283e-09 1.72778e-09)
(0.99215 1.49145e-08 3.01781e-09)
(0.99215 3.32754e-08 3.83253e-09)
(0.99215 3.80793e-08 5.19312e-09)
(0.99215 2.79094e-08 2.80918e-09)
(0.992149 8.24512e-09 -2.22711e-09)
(0.992149 -1.48249e-08 -4.58608e-09)
(0.992149 -3.36723e-08 -4.41205e-09)
(1.00447 -3.89217e-08 -3.86406e-09)
(1.00447 -2.92627e-08 -1.7954e-09)
(1.00447 -1.01979e-08 1.42675e-09)
(1.00447 1.32488e-08 2.77525e-09)
(1.00447 3.26209e-08 3.75114e-09)
(1.00447 3.8716e-08 5.23242e-09)
(1.00447 2.96002e-08 2.98953e-09)
(1.00447 1.03106e-08 -1.91357e-09)
(1.00447 -1.31492e-08 -4.31889e-09)
(1.00447 -3.30334e-08 -4.30754e-09)
(1.01591 -3.94558e-08 -3.90276e-09)
(1.01591 -3.07839e-08 -1.98475e-09)
(1.01591 -1.21245e-08 1.1419e-09)
(1.01591 1.16543e-08 2.53033e-09)
(1.01591 3.19433e-08 3.65129e-09)
(1.01591 3.92414e-08 5.24908e-09)
(1.01591 3.11333e-08 3.14746e-09)
(1.01591 1.22351e-08 -1.61773e-09)
(1.01591 -1.15438e-08 -4.05335e-09)
(1.01591 -3.23682e-08 -4.18605e-09)
(1.02664 -3.992e-08 -3.91804e-09)
(1.02664 -3.21853e-08 -2.15012e-09)
(1.02664 -1.3927e-08 8.73136e-10)
(1.02664 1.01425e-08 2.28499e-09)
(1.02664 3.12757e-08 3.53606e-09)
(1.02664 3.96984e-08 5.2453e-09)
(1.02664 3.25448e-08 3.28416e-09)
(1.02664 1.40333e-08 -1.33907e-09)
(1.02664 -1.00209e-08 -3.79073e-09)
(1.02664 -3.17109e-08 -4.0505e-09)
(1.03675 -4.03471e-08 -3.91232e-09)
(1.03675 -3.34931e-08 -2.2923e-09)
(1.03675 -1.56152e-08 6.2152e-10)
(1.03675 8.72309e-09 2.04197e-09)
(1.03675 3.0644e-08 3.40862e-09)
(1.03675 4.01197e-08 5.22307e-09)
(1.03675 3.38616e-08 3.40013e-09)
(1.03675 1.57156e-08 -1.07844e-09)
(1.03675 -8.59024e-09 -3.53334e-09)
(1.03675 -3.10878e-08 -3.90398e-09)
(1.04626 -4.07624e-08 -3.88812e-09)
(1.04626 -3.47286e-08 -2.41217e-09)
(1.04626 -1.71982e-08 3.88126e-10)
(1.04626 7.40241e-09 1.804e-09)
(1.04626 3.00673e-08 3.27222e-09)
(1.04626 4.05306e-08 5.18466e-09)
(1.04626 3.51051e-08 3.49602e-09)
(1.04626 1.72914e-08 -8.36794e-10)
(1.04626 -7.25835e-09 -3.28361e-09)
(1.04626 -3.05188e-08 -3.74966e-09)
(1.05526 -4.11867e-08 -3.84788e-09)
(1.05526 -3.59131e-08 -2.51145e-09)
(1.05526 -1.86901e-08 1.72541e-10)
(1.05526 6.1791e-09 1.57231e-09)
(1.05526 2.95574e-08 3.12925e-09)
(1.05526 4.09514e-08 5.13228e-09)
(1.05526 3.62969e-08 3.57327e-09)
(1.05526 1.87748e-08 -6.13621e-10)
(1.05526 -6.02379e-09 -3.04251e-09)
(1.05526 -3.00157e-08 -3.58975e-09)
(1.06378 -4.16361e-08 -3.7939e-09)
(1.06378 -3.70646e-08 -2.5917e-09)
(1.06378 -2.01036e-08 -2.55366e-11)
(1.06378 5.05025e-09 1.34814e-09)
(1.06378 2.91221e-08 2.98199e-09)
(1.06378 4.13982e-08 5.06806e-09)
(1.06378 3.74552e-08 3.63322e-09)
(1.06378 2.0179e-08 -4.08568e-10)
(1.06378 -4.88357e-09 -2.81108e-09)
(1.06378 -2.95868e-08 -3.42641e-09)
(1.07182 -4.21226e-08 -3.72884e-09)
(1.07182 -3.81962e-08 -2.65417e-09)
(1.07182 -2.14479e-08 -2.05473e-10)
(1.07182 4.01384e-09 1.13379e-09)
(1.07182 2.87675e-08 2.83356e-09)
(1.07182 4.18828e-08 4.9946e-09)
(1.07182 3.85931e-08 3.67704e-09)
(1.07182 2.15134e-08 -2.22262e-10)
(1.07182 -3.83558e-09 -2.59153e-09)
(1.07182 -2.92381e-08 -3.26268e-09)
(1.07933 -4.26537e-08 -3.65585e-09)
(1.07933 -3.9317e-08 -2.70055e-09)
(1.07933 -2.27301e-08 -3.66787e-10)
(1.07933 3.06751e-09 9.31728e-10)
(1.07933 2.84966e-08 2.68735e-09)
(1.07933 4.24126e-08 4.91504e-09)
(1.07933 3.97197e-08 3.70639e-09)
(1.07933 2.27851e-08 -5.52057e-11)
(1.07933 -2.87735e-09 -2.3863e-09)
(1.07933 -2.89729e-08 -3.10196e-09)
(1.0863 -4.3236e-08 -3.57787e-09)
(1.0863 -4.04376e-08 -2.73312e-09)
(1.0863 -2.39609e-08 -5.10286e-10)
(1.0863 2.20468e-09 7.42991e-10)
(1.0863 2.83094e-08 2.54592e-09)
(1.0863 4.29941e-08 4.83229e-09)
(1.0863 4.08454e-08 3.7235e-09)
(1.0863 2.40051e-08 9.34082e-11)
(1.0863 -2.00221e-09 -2.19639e-09)
(1.0863 -2.87909e-08 -2.94672e-09)
(1.09272 -4.38736e-08 -3.49784e-09)
(1.09272 -4.15653e-08 -2.7542e-09)
(1.09272 -2.5148e-08 -6.36773e-10)
(1.09272 1.42036e-09 5.68627e-10)
(1.09272 2.82052e-08 2.4118e-09)
(1.09272 4.36313e-08 4.7493e-09)
(1.09272 4.19777e-08 3.7306e-09)
(1.09272 2.51808e-08 2.24386e-10)
(1.09272 -1.20509e-09 -2.02285e-09)
(1.09272 -2.86917e-08 -2.79944e-09)
(1.09855 -4.45677e-08 -3.41894e-09)
(1.09855 -4.27032e-08 -2.76635e-09)
(1.09855 -2.62951e-08 -7.47233e-10)
(1.09855 7.11462e-10 4.09613e-10)
(1.09855 2.81829e-08 2.28758e-09)
(1.09855 4.43254e-08 4.66925e-09)
(1.09855 4.31196e-08 3.73027e-09)
(1.09855 2.63158e-08 3.38691e-10)
(1.09855 -4.82864e-10 -1.86667e-09)
(1.09855 -2.86739e-08 -2.66271e-09)
(1.10378 -4.532e-08 -3.34404e-09)