/*--------------------------------*- C++ -*----------------------------------*\
| =========                 |                                                 |
| \\      /  F ield         | OpenFOAM: The Open Source CFD Toolbox           |
|  \\    /   O peration     | Version:  2.3.0                                 |
|   \\  /    A nd           | Web:      www.OpenFOAM.org                      |
|    \\/     M anipulation  |                                                 |
\*---------------------------------------------------------------------------*/
FoamFile
{
    version     2.0;
    format      ascii;
    class       volScalarField;
    location    "400";
    object      epsilon;
}
// * * * * * * * * * * * * * * * * * * * * * * * * * * * * * * * * * * * * * //

dimensions      [0 2 -3 0 0 0 0];

internalField   nonuniform List<scalar> 
17000
(
0.0297588
0.0297587
0.0297586
0.0297585
0.0297585
0.0297585
0.0297585
0.0297585
0.0297586
0.0297586
0.0116952
0.0116952
0.0116952
0.0116952
0.0116951
0.0116951
0.0116952
0.0116952
0.0116952
0.0116952
0.00670589
0.00670588
0.00670586
0.00670584
0.00670584
0.00670584
0.00670584
0.00670585
0.00670586
0.00670587
0.00459995
0.00459994
0.00459992
0.00459991
0.00459991
0.00459992
0.00459992
0.00459993
0.00459993
0.00459994
0.0034709
0.00347089
0.00347087
0.00347087
0.00347087
0.00347087
0.00347088
0.00347088
0.00347089
0.00347089
0.00277402
0.00277402
0.00277401
0.002774
0.002774
0.00277401
0.00277401
0.00277402
0.00277402
0.00277402
0.00230286
0.00230285
0.00230284
0.00230284
0.00230284
0.00230285
0.00230285
0.00230286
0.00230286
0.00230286
0.00196351
0.0019635
0.00196349
0.00196349
0.0019635
0.0019635
0.0019635
0.00196351
0.00196351
0.00196351
0.00170753
0.00170753
0.00170752
0.00170752
0.00170752
0.00170753
0.00170753
0.00170753
0.00170754
0.00170754
0.00150753
0.00150753
0.00150753
0.00150752
0.00150753
0.00150753
0.00150754
0.00150754
0.00150754
0.00150754
0.0013469
0.0013469
0.00134689
0.00134689
0.0013469
0.0013469
0.0013469
0.00134691
0.00134691
0.00134691
0.00121499
0.00121498
0.00121498
0.00121498
0.00121498
0.00121499
0.00121499
0.00121499
0.001215
0.001215
0.00110466
0.00110466
0.00110465
0.00110465
0.00110465
0.00110466
0.00110466
0.00110467
0.00110467
0.00110467
0.00101096
0.00101096
0.00101096
0.00101096
0.00101096
0.00101096
0.00101097
0.00101097
0.00101097
0.00101097
0.000930354
0.000930355
0.000930353
0.000930353
0.000930355
0.000930359
0.000930363
0.000930366
0.000930367
0.000930366
0.000860235
0.000860236
0.000860234
0.000860234
0.000860237
0.00086024
0.000860244
0.000860246
0.000860247
0.000860247
0.000798646
0.000798648
0.000798647
0.000798647
0.000798649
0.000798652
0.000798656
0.000798658
0.000798659
0.000798658
0.000744092
0.000744095
0.000744094
0.000744094
0.000744097
0.0007441
0.000744103
0.000744105
0.000744106
0.000744105
0.000695409
0.000695412
0.000695411
0.000695412
0.000695414
0.000695417
0.00069542
0.000695422
0.000695422
0.000695421
0.000651676
0.00065168
0.000651679
0.00065168
0.000651682
0.000651684
0.000651687
0.000651688
0.000651689
0.000651688
0.000612157
0.000612161
0.000612161
0.000612161
0.000612163
0.000612165
0.000612168
0.000612169
0.00061217
0.000612169
0.000576256
0.00057626
0.00057626
0.00057626
0.000576262
0.000576264
0.000576266
0.000576268
0.000576268
0.000576267
0.000543484
0.000543489
0.000543489
0.000543489
0.000543491
0.000543493
0.000543494
0.000543496
0.000543496
0.000543495
0.000513439
0.000513443
0.000513443
0.000513444
0.000513445
0.000513447
0.000513449
0.00051345
0.00051345
0.000513449
0.000485783
0.000485788
0.000485788
0.000485788
0.00048579
0.000485791
0.000485793
0.000485794
0.000485794
0.000485793
0.000460236
0.00046024
0.00046024
0.000460241
0.000460242
0.000460243
0.000460245
0.000460245
0.000460246
0.000460245
0.000436556
0.000436561
0.000436561
0.000436562
0.000436563
0.000436564
0.000436565
0.000436566
0.000436566
0.000436565
0.000414542
0.000414547
0.000414547
0.000414548
0.000414549
0.00041455
0.000414551
0.000414551
0.000414551
0.000414551
0.000394019
0.000394024
0.000394024
0.000394024
0.000394025
0.000394026
0.000394027
0.000394027
0.000394027
0.000394027
0.000374836
0.000374841
0.000374841
0.000374841
0.000374842
0.000374843
0.000374844
0.000374844
0.000374844
0.000374843
0.000356864
0.000356868
0.000356869
0.000356869
0.000356869
0.00035687
0.000356871
0.000356871
0.000356871
0.00035687
0.000339988
0.000339993
0.000339993
0.000339993
0.000339993
0.000339994
0.000339995
0.000339995
0.000339995
0.000339994
0.000324111
0.000324115
0.000324115
0.000324115
0.000324116
0.000324116
0.000324117
0.000324117
0.000324117
0.000324116
0.000309144
0.000309149
0.000309149
0.000309149
0.000309149
0.00030915
0.00030915
0.00030915
0.00030915
0.000309149
0.000295013
0.000295017
0.000295017
0.000295017
0.000295017
0.000295018
0.000295018
0.000295018
0.000295018
0.000295017
0.000281648
0.000281652
0.000281652
0.000281652
0.000281652
0.000281653
0.000281653
0.000281653
0.000281653
0.000281652
0.000268991
0.000268995
0.000268995
0.000268995
0.000268995
0.000268995
0.000268995
0.000268995
0.000268995
0.000268995
0.000256988
0.000256992
0.000256992
0.000256991
0.000256991
0.000256991
0.000256991
0.000256991
0.000256991
0.000256991
0.000245591
0.000245595
0.000245595
0.000245594
0.000245594
0.000245594
0.000245594
0.000245594
0.000245594
0.000245594
0.000234759
0.000234762
0.000234762
0.000234761
0.000234761
0.000234761
0.000234761
0.000234761
0.000234761
0.000234761
0.000224452
0.000224455
0.000224455
0.000224455
0.000224455
0.000224455
0.000224455
0.000224454
0.000224454
0.000224454
0.000214638
0.000214641
0.000214641
0.00021464
0.00021464
0.00021464
0.00021464
0.00021464
0.00021464
0.00021464
0.000205285
0.000205288
0.000205288
0.000205287
0.000205287
0.000205287
0.000205287
0.000205287
0.000205287
0.000205287
0.000196367
0.000196369
0.000196369
0.000196368
0.000196368
0.000196368
0.000196368
0.000196368
0.000196368
0.000196368
0.000187857
0.00018786
0.000187859
0.000187859
0.000187858
0.000187858
0.000187858
0.000187858
0.000187858
0.000187858
0.000179734
0.000179737
0.000179736
0.000179736
0.000179735
0.000179735
0.000179735
0.000179735
0.000179735
0.000179735
0.000171978
0.00017198
0.00017198
0.000171979
0.000171979
0.000171979
0.000171978
0.000171978
0.000171978
0.000171978
0.00016457
0.000164572
0.000164571
0.000164571
0.00016457
0.00016457
0.00016457
0.00016457
0.00016457
0.00016457
0.000157493
0.000157495
0.000157494
0.000157494
0.000157493
0.000157493
0.000157493
0.000157493
0.000157493
0.000157493
0.000150733
0.000150734
0.000150734
0.000150733
0.000150733
0.000150732
0.000150732
0.000150732
0.000150732
0.000150732
0.000144275
0.000144276
0.000144276
0.000144275
0.000144274
0.000144274
0.000144274
0.000144274
0.000144274
0.000144274
0.000138107
0.000138108
0.000138107
0.000138107
0.000138106
0.000138106
0.000138106
0.000138106
0.000138106
0.000138106
0.000132217
0.000132219
0.000132218
0.000132217
0.000132217
0.000132217
0.000132216
0.000132216
0.000132216
0.000132216
0.000126596
0.000126597
0.000126596
0.000126596
0.000126595
0.000126595
0.000126595
0.000126595
0.000126595
0.000126595
0.000121233
0.000121234
0.000121233
0.000121233
0.000121232
0.000121232
0.000121232
0.000121232
0.000121232
0.000121232
0.00011612
0.000116121
0.00011612
0.000116119
0.000116119
0.000116119
0.000116119
0.000116119
0.000116119
0.000116119
0.000111249
0.000111249
0.000111248
0.000111248
0.000111247
0.000111247
0.000111247
0.000111247
0.000111247
0.000111247
0.000106611
0.000106611
0.00010661
0.00010661
0.000106609
0.000106609
0.000106609
0.000106609
0.000106609
0.000106609
0.0001022
0.0001022
0.000102199
0.000102198
0.000102198
0.000102198
0.000102198
0.000102198
0.000102198
0.000102198
9.80091e-05
9.80091e-05
9.80081e-05
9.80075e-05
9.80072e-05
9.8007e-05
9.80069e-05
9.80068e-05
9.80068e-05
9.80069e-05
9.40324e-05
9.40322e-05
9.40312e-05
9.40306e-05
9.40303e-05
9.40302e-05
9.40301e-05
9.403e-05
9.403e-05
9.40301e-05
9.02639e-05
9.02636e-05
9.02626e-05
9.02619e-05
9.02617e-05
9.02616e-05
9.02614e-05
9.02614e-05
9.02614e-05
9.02615e-05
8.66981e-05
8.66976e-05
8.66965e-05
8.66959e-05
8.66957e-05
8.66956e-05
8.66955e-05
8.66954e-05
8.66954e-05
8.66956e-05
8.33297e-05
8.3329e-05
8.33279e-05
8.33273e-05
8.33271e-05
8.3327e-05
8.33269e-05
8.33268e-05
8.33268e-05
8.3327e-05
8.01535e-05
8.01527e-05
8.01516e-05
8.0151e-05
8.01508e-05
8.01507e-05
8.01507e-05
8.01506e-05
8.01506e-05
8.01507e-05
7.71648e-05
7.71639e-05
7.71627e-05
7.71622e-05
7.7162e-05
7.71619e-05
7.71618e-05
7.71618e-05
7.71618e-05
7.71619e-05
7.43589e-05
7.43578e-05
7.43566e-05
7.43561e-05
7.43559e-05
7.43559e-05
7.43558e-05
7.43557e-05
7.43557e-05
7.43558e-05
7.17312e-05
7.17299e-05
7.17287e-05
7.17282e-05
7.17281e-05
7.1728e-05
7.1728e-05
7.17279e-05
7.17279e-05
7.1728e-05
6.92773e-05
6.92759e-05
6.92747e-05
6.92742e-05
6.92741e-05
6.9274e-05
6.9274e-05
6.92739e-05
6.92739e-05
6.9274e-05
6.69931e-05
6.69915e-05
6.69902e-05
6.69898e-05
6.69897e-05
6.69896e-05
6.69896e-05
6.69895e-05
6.69895e-05
6.69896e-05
6.48743e-05
6.48726e-05
6.48713e-05
6.48708e-05
6.48707e-05
6.48707e-05
6.48707e-05
6.48707e-05
6.48706e-05
6.48707e-05
6.2917e-05
6.29152e-05
6.29139e-05
6.29135e-05
6.29134e-05
6.29134e-05
6.29133e-05
6.29133e-05
6.29133e-05
6.29134e-05
6.11175e-05
6.11155e-05
6.11143e-05
6.11138e-05
6.11137e-05
6.11137e-05
6.11137e-05
6.11137e-05
6.11137e-05
6.11137e-05
5.94721e-05
5.947e-05
5.94687e-05
5.94682e-05
5.94682e-05
5.94682e-05
5.94682e-05
5.94681e-05
5.94681e-05
5.94682e-05
5.79772e-05
5.7975e-05
5.79737e-05
5.79733e-05
5.79733e-05
5.79733e-05
5.79733e-05
5.79732e-05
5.79732e-05
5.79733e-05
5.66298e-05
5.66274e-05
5.66261e-05
5.66257e-05
5.66257e-05
5.66257e-05
5.66257e-05
5.66257e-05
5.66256e-05
5.66257e-05
5.54265e-05
5.54241e-05
5.54228e-05
5.54224e-05
5.54224e-05
5.54224e-05
5.54224e-05
5.54224e-05
5.54223e-05
5.54224e-05
5.43648e-05
5.43623e-05
5.43609e-05
5.43605e-05
5.43605e-05
5.43606e-05
5.43606e-05
5.43605e-05
5.43605e-05
5.43605e-05
5.34419e-05
5.34393e-05
5.3438e-05
5.34376e-05
5.34376e-05
5.34376e-05
5.34376e-05
5.34376e-05
5.34376e-05
5.34376e-05
5.26555e-05
5.26529e-05
5.26516e-05
5.26512e-05
5.26512e-05
5.26512e-05
5.26512e-05
5.26512e-05
5.26512e-05
5.26512e-05
5.20037e-05
5.2001e-05
5.19997e-05
5.19993e-05
5.19993e-05
5.19994e-05
5.19994e-05
5.19993e-05
5.19993e-05
5.19993e-05
5.14848e-05
5.1482e-05
5.14807e-05
5.14803e-05
5.14803e-05
5.14804e-05
5.14804e-05
5.14803e-05
5.14803e-05
5.14803e-05
5.10972e-05
5.10945e-05
5.10931e-05
5.10927e-05
5.10928e-05
5.10928e-05
5.10928e-05
5.10928e-05
5.10928e-05
5.10928e-05
5.08401e-05
5.08373e-05
5.08359e-05
5.08355e-05
5.08356e-05
5.08356e-05
5.08356e-05
5.08356e-05
5.08356e-05
5.08356e-05
5.07125e-05
5.07097e-05
5.07084e-05
5.0708e-05
5.0708e-05
5.07081e-05
5.07081e-05
5.07081e-05
5.0708e-05
5.0708e-05
5.07143e-05
5.07115e-05
5.07101e-05
5.07098e-05
5.07098e-05
5.07098e-05
5.07099e-05
5.07098e-05
5.07098e-05
5.07098e-05
5.08453e-05
5.08425e-05
5.08411e-05
5.08408e-05
5.08408e-05
5.08409e-05
5.08409e-05
5.08408e-05
5.08408e-05
5.08408e-05
5.11059e-05
5.11031e-05
5.11018e-05
5.11014e-05
5.11014e-05
5.11015e-05
5.11015e-05
5.11014e-05
5.11014e-05
5.11014e-05
5.14967e-05
5.1494e-05
5.14927e-05
5.14923e-05
5.14923e-05
5.14924e-05
5.14924e-05
5.14923e-05
5.14923e-05
5.14923e-05
5.20189e-05
5.20162e-05
5.20149e-05
5.20145e-05
5.20145e-05
5.20146e-05
5.20146e-05
5.20145e-05
5.20145e-05
5.20145e-05
5.26736e-05
5.2671e-05
5.26697e-05
5.26694e-05
5.26694e-05
5.26694e-05
5.26694e-05
5.26694e-05
5.26694e-05
5.26694e-05
5.34628e-05
5.34602e-05
5.34589e-05
5.34586e-05
5.34586e-05
5.34586e-05
5.34586e-05
5.34586e-05
5.34585e-05
5.34586e-05
5.43882e-05
5.43857e-05
5.43845e-05
5.43841e-05
5.43841e-05
5.43841e-05
5.43841e-05
5.43841e-05
5.43841e-05
5.43841e-05
5.54523e-05
5.54499e-05
5.54486e-05
5.54483e-05
5.54482e-05
5.54483e-05
5.54483e-05
5.54482e-05
5.54482e-05
5.54482e-05
5.66575e-05
5.66552e-05
5.66539e-05
5.66536e-05
5.66536e-05
5.66536e-05
5.66536e-05
5.66535e-05
5.66535e-05
5.66535e-05
5.80067e-05
5.80045e-05
5.80032e-05
5.80029e-05
5.80028e-05
5.80029e-05
5.80029e-05
5.80028e-05
5.80028e-05
5.80028e-05
5.95029e-05
5.95008e-05
5.94996e-05
5.94992e-05
5.94992e-05
5.94992e-05
5.94992e-05
5.94991e-05
5.94991e-05
5.94991e-05
6.11494e-05
6.11474e-05
6.11462e-05
6.11458e-05
6.11457e-05
6.11458e-05
6.11457e-05
6.11457e-05
6.11456e-05
6.11457e-05
6.29496e-05
6.29477e-05
6.29465e-05
6.29461e-05
6.29461e-05
6.29461e-05
6.29461e-05
6.2946e-05
6.2946e-05
6.2946e-05
6.49071e-05
6.49054e-05
6.49043e-05
6.49039e-05
6.49038e-05
6.49038e-05
6.49038e-05
6.49037e-05
6.49037e-05
6.49037e-05
6.70259e-05
6.70243e-05
6.70232e-05
6.70228e-05
6.70227e-05
6.70227e-05
6.70226e-05
6.70226e-05
6.70225e-05
6.70226e-05
6.93099e-05
6.93084e-05
6.93073e-05
6.93069e-05
6.93068e-05
6.93067e-05
6.93067e-05
6.93066e-05
6.93066e-05
6.93066e-05
7.1763e-05
7.17617e-05
7.17606e-05
7.17602e-05
7.17601e-05
7.17601e-05
7.176e-05
7.17599e-05
7.17599e-05
7.176e-05
7.43898e-05
7.43886e-05
7.43875e-05
7.43871e-05
7.4387e-05
7.43869e-05
7.43868e-05
7.43867e-05
7.43867e-05
7.43868e-05
7.71944e-05
7.71933e-05
7.71923e-05
7.71919e-05
7.71917e-05
7.71917e-05
7.71916e-05
7.71915e-05
7.71914e-05
7.71915e-05
8.01815e-05
8.01806e-05
8.01796e-05
8.01791e-05
8.0179e-05
8.01789e-05
8.01788e-05
8.01787e-05
8.01786e-05
8.01787e-05
8.33557e-05
8.3355e-05
8.3354e-05
8.33535e-05
8.33534e-05
8.33533e-05
8.33532e-05
8.33531e-05
8.3353e-05
8.33531e-05
8.67221e-05
8.67214e-05
8.67205e-05
8.672e-05
8.67198e-05
8.67197e-05
8.67196e-05
8.67195e-05
8.67194e-05
8.67195e-05
9.02855e-05
9.0285e-05
9.02841e-05
9.02836e-05
9.02834e-05
9.02833e-05
9.02832e-05
9.0283e-05
9.0283e-05
9.02831e-05
9.40514e-05
9.4051e-05
9.40502e-05
9.40497e-05
9.40495e-05
9.40493e-05
9.40492e-05
9.4049e-05
9.4049e-05
9.40491e-05
9.80253e-05
9.80251e-05
9.80242e-05
9.80237e-05
9.80235e-05
9.80233e-05
9.80232e-05
9.8023e-05
9.80229e-05
9.80231e-05
0.000102213
0.000102213
0.000102212
0.000102212
0.000102211
0.000102211
0.000102211
0.000102211
0.000102211
0.000102211
0.000106621
0.000106621
0.00010662
0.00010662
0.000106619
0.000106619
0.000106619
0.000106619
0.000106619
0.000106619
0.000111255
0.000111255
0.000111255
0.000111254
0.000111254
0.000111254
0.000111253
0.000111253
0.000111253
0.000111253
0.000116123
0.000116124
0.000116123
0.000116122
0.000116122
0.000116122
0.000116122
0.000116122
0.000116122
0.000116122
0.000121233
0.000121233
0.000121233
0.000121232
0.000121232
0.000121232
0.000121231
0.000121231
0.000121231
0.000121231
0.000126592
0.000126592
0.000126592
0.000126591
0.000126591
0.000126591
0.00012659
0.00012659
0.00012659
0.00012659
0.000132209
0.00013221
0.000132209
0.000132209
0.000132208
0.000132208
0.000132208
0.000132208
0.000132208
0.000132208
0.000138094
0.000138095
0.000138095
0.000138094
0.000138094
0.000138094
0.000138093
0.000138093
0.000138093
0.000138093
0.000144258
0.000144259
0.000144258
0.000144258
0.000144258
0.000144257
0.000144257
0.000144257
0.000144257
0.000144257
0.000150712
0.000150713
0.000150712
0.000150712
0.000150711
0.000150711
0.000150711
0.000150711
0.000150711
0.000150711
0.000157468
0.000157469
0.000157468
0.000157468
0.000157468
0.000157467
0.000157467
0.000157467
0.000157467
0.000157467
0.00016454
0.000164541
0.000164541
0.00016454
0.00016454
0.00016454
0.000164539
0.000164539
0.000164539
0.000164539
0.000171943
0.000171945
0.000171944
0.000171944
0.000171944
0.000171943
0.000171943
0.000171943
0.000171943
0.000171943
0.000179695
0.000179696
0.000179696
0.000179696
0.000179695
0.000179695
0.000179695
0.000179695
0.000179695
0.000179695
0.000187813
0.000187814
0.000187814
0.000187814
0.000187813
0.000187813
0.000187813
0.000187813
0.000187813
0.000187813
0.000196317
0.000196319
0.000196319
0.000196318
0.000196318
0.000196318
0.000196318
0.000196318
0.000196317
0.000196317
0.000205231
0.000205233
0.000205233
0.000205232
0.000205232
0.000205232
0.000205232
0.000205232
0.000205231
0.000205231
0.000214579
0.000214581
0.00021458
0.00021458
0.00021458
0.00021458
0.00021458
0.000214579
0.000214579
0.000214579
0.000224388
0.00022439
0.00022439
0.000224389
0.000224389
0.000224389
0.000224389
0.000224389
0.000224389
0.000224388
0.000234689
0.000234691
0.000234691
0.000234691
0.000234691
0.000234691
0.00023469
0.00023469
0.00023469
0.00023469
0.000245516
0.000245519
0.000245518
0.000245518
0.000245518
0.000245518
0.000245518
0.000245518
0.000245518
0.000245518
0.000256908
0.00025691
0.00025691
0.00025691
0.00025691
0.00025691
0.00025691
0.00025691
0.00025691
0.00025691
0.000268906
0.000268908
0.000268908
0.000268908
0.000268908
0.000268908
0.000268909
0.000268908
0.000268908
0.000268908
0.000281558
0.000281561
0.000281561
0.00028156
0.000281561
0.000281561
0.000281561
0.000281561
0.000281561
0.000281561
0.000294917
0.00029492
0.00029492
0.00029492
0.00029492
0.000294921
0.000294921
0.000294921
0.000294921
0.000294921
0.000309044
0.000309047
0.000309047
0.000309047
0.000309047
0.000309048
0.000309048
0.000309048
0.000309048
0.000309048
0.000324006
0.000324009
0.000324009
0.000324009
0.000324009
0.00032401
0.00032401
0.00032401
0.00032401
0.00032401
0.000339879
0.000339882
0.000339882
0.000339882
0.000339882
0.000339883
0.000339883
0.000339884
0.000339884
0.000339883
0.00035675
0.000356753
0.000356753
0.000356753
0.000356754
0.000356754
0.000356755
0.000356756
0.000356756
0.000356755
0.000374719
0.000374722
0.000374722
0.000374722
0.000374722
0.000374723
0.000374724
0.000374725
0.000374725
0.000374724
0.000393898
0.000393901
0.000393901
0.000393901
0.000393902
0.000393903
0.000393904
0.000393904
0.000393905
0.000393904
0.000414418
0.000414421
0.000414421
0.000414421
0.000414422
0.000414423
0.000414424
0.000414425
0.000414425
0.000414425
0.000436429
0.000436433
0.000436432
0.000436432
0.000436433
0.000436434
0.000436436
0.000436437
0.000436437
0.000436436
0.000460106
0.000460109
0.000460109
0.000460109
0.00046011
0.000460111
0.000460113
0.000460114
0.000460114
0.000460114
0.000485652
0.000485656
0.000485655
0.000485655
0.000485656
0.000485658
0.000485659
0.000485661
0.000485661
0.000485661
0.000513307
0.00051331
0.000513309
0.000513309
0.00051331
0.000513312
0.000513314
0.000513315
0.000513316
0.000513315
0.000543352
0.000543355
0.000543354
0.000543354
0.000543355
0.000543357
0.000543359
0.000543361
0.000543361
0.000543361
0.000576124
0.000576126
0.000576125
0.000576125
0.000576127
0.000576129
0.000576131
0.000576133
0.000576134
0.000576133
0.000612026
0.000612028
0.000612027
0.000612027
0.000612028
0.000612031
0.000612033
0.000612035
0.000612036
0.000612036
0.000651546
0.000651549
0.000651547
0.000651547
0.000651548
0.000651551
0.000651554
0.000651556
0.000651557
0.000651557
0.000695282
0.000695283
0.000695282
0.000695281
0.000695283
0.000695286
0.000695289
0.000695291
0.000695293
0.000695292
0.000743968
0.000743969
0.000743967
0.000743967
0.000743968
0.000743971
0.000743975
0.000743977
0.000743979
0.000743978
0.000798525
0.000798526
0.000798524
0.000798523
0.000798525
0.000798528
0.000798531
0.000798534
0.000798536
0.000798536
0.000860118
0.000860118
0.000860116
0.000860115
0.000860116
0.000860119
0.000860123
0.000860127
0.000860129
0.000860128
0.000930242
0.000930242
0.000930239
0.000930238
0.000930239
0.000930243
0.000930247
0.00093025
0.000930253
0.000930252
0.00101085
0.00101085
0.00101085
0.00101085
0.00101085
0.00101085
0.00101086
0.00101086
0.00101086
0.00101086
0.00110455
0.00110455
0.00110455
0.00110455
0.00110455
0.00110455
0.00110455
0.00110456
0.00110456
0.00110456
0.00121488
0.00121488
0.00121488
0.00121488
0.00121488
0.00121488
0.00121489
0.00121489
0.00121489
0.00121489
0.0013468
0.0013468
0.00134679
0.00134679
0.00134679
0.0013468
0.0013468
0.00134681
0.00134681
0.00134681
0.00150743
0.00150743
0.00150742
0.00150742
0.00150742
0.00150742
0.00150743
0.00150743
0.00150744
0.00150744
0.00170742
0.00170741
0.00170741
0.00170741
0.00170741
0.00170741
0.00170741
0.00170742
0.00170742
0.00170742
0.00196338
0.00196337
0.00196336
0.00196336
0.00196336
0.00196336
0.00196337
0.00196337
0.00196338
0.00196338
0.0023027
0.00230269
0.00230268
0.00230268
0.00230268
0.00230268
0.00230268
0.00230269
0.00230269
0.0023027
0.0027738
0.00277379
0.00277379
0.00277378
0.00277378
0.00277378
0.00277379
0.00277379
0.0027738
0.0027738
0.00347058
0.00347057
0.00347056
0.00347055
0.00347055
0.00347055
0.00347055
0.00347056
0.00347057
0.00347057
0.00459945
0.00459944
0.00459943
0.00459942
0.00459942
0.00459942
0.00459942
0.00459943
0.00459943
0.00459944
0.00670503
0.00670502
0.00670501
0.00670499
0.00670499
0.00670498
0.00670499
0.006705
0.00670501
0.00670502
0.0116935
0.0116935
0.0116935
0.0116934
0.0116934
0.0116934
0.0116934
0.0116934
0.0116934
0.0116935
0.0297534
0.0297533
0.0297532
0.0297531
0.0297531
0.0297531
0.0297531
0.0297531
0.0297532
0.0297532
0.0297588
0.0297587
0.0297586
0.0297585
0.0297585
0.0297584
0.0297585
0.0297585
0.0297586
0.0297586
0.0116952
0.0116952
0.0116952
0.0116952
0.0116951
0.0116951
0.0116951
0.0116952
0.0116952
0.0116952
0.00670589
0.00670588
0.00670586
0.00670584
0.00670583
0.00670584
0.00670584
0.00670585
0.00670586
0.00670587
0.00459995
0.00459994
0.00459992
0.00459991
0.00459991
0.00459991
0.00459992
0.00459993
0.00459993
0.00459994
0.0034709
0.00347089
0.00347087
0.00347087
0.00347087
0.00347087
0.00347088
0.00347088
0.00347089
0.00347089
0.00277402
0.00277402
0.00277401
0.002774
0.002774
0.00277401
0.00277401
0.00277402
0.00277402
0.00277402
0.00230286
0.00230285
0.00230284
0.00230284
0.00230284
0.00230285
0.00230285
0.00230286
0.00230286
0.00230286
0.00196351
0.0019635
0.0019635
0.00196349
0.0019635
0.0019635
0.0019635
0.00196351
0.00196351
0.00196351
0.00170753
0.00170753
0.00170752
0.00170752
0.00170752
0.00170753
0.00170753
0.00170753
0.00170754
0.00170754
0.00150754
0.00150753
0.00150753
0.00150753
0.00150753
0.00150753
0.00150754
0.00150754
0.00150754
0.00150754
0.0013469
0.0013469
0.0013469
0.0013469
0.0013469
0.0013469
0.00134691
0.00134691
0.00134691
0.00134691
0.00121499
0.00121499
0.00121498
0.00121498
0.00121498
0.00121499
0.00121499
0.001215
0.001215
0.001215
0.00110466
0.00110466
0.00110465
0.00110465
0.00110466
0.00110466
0.00110466
0.00110467
0.00110467
0.00110467
0.00101096
0.00101096
0.00101096
0.00101096
0.00101096
0.00101096
0.00101097
0.00101097
0.00101097
0.00101097
0.000930355
0.000930356
0.000930353
0.000930354
0.000930356
0.00093036
0.000930363
0.000930366
0.000930368
0.000930367
0.000860235
0.000860237
0.000860235
0.000860235
0.000860237
0.000860241
0.000860244
0.000860247
0.000860248
0.000860247
0.000798647
0.000798649
0.000798647
0.000798647
0.00079865
0.000798653
0.000798656
0.000798659
0.00079866
0.000798659
0.000744093
0.000744095
0.000744094
0.000744095
0.000744097
0.0007441
0.000744103
0.000744105
0.000744106
0.000744105
0.00069541
0.000695413
0.000695412
0.000695412
0.000695414
0.000695417
0.00069542
0.000695422
0.000695422
0.000695421
0.000651677
0.00065168
0.000651679
0.00065168
0.000651682
0.000651684
0.000651687
0.000651689
0.000651689
0.000651688
0.000612158
0.000612161
0.000612161
0.000612161
0.000612163
0.000612166
0.000612168
0.000612169
0.00061217
0.000612169
0.000576256
0.00057626
0.00057626
0.00057626
0.000576262
0.000576264
0.000576266
0.000576268
0.000576268
0.000576267
0.000543484
0.000543489
0.000543489
0.000543489
0.000543491
0.000543493
0.000543494
0.000543496
0.000543496
0.000543495
0.000513439
0.000513443
0.000513443
0.000513444
0.000513445
0.000513447
0.000513449
0.00051345
0.00051345
0.000513449
0.000485783
0.000485788
0.000485788
0.000485788
0.00048579
0.000485791
0.000485793
0.000485794
0.000485794
0.000485793
0.000460235
0.00046024
0.00046024
0.00046024
0.000460242
0.000460243
0.000460245
0.000460245
0.000460245
0.000460245
0.000436556
0.000436561
0.000436561
0.000436561
0.000436562
0.000436564
0.000436565
0.000436566
0.000436566
0.000436565
0.000414542
0.000414547
0.000414547
0.000414547
0.000414548
0.000414549
0.00041455
0.000414551
0.000414551
0.00041455
0.000394019
0.000394023
0.000394024
0.000394024
0.000394025
0.000394026
0.000394027
0.000394027
0.000394027
0.000394026
0.000374836
0.00037484
0.000374841
0.000374841
0.000374842
0.000374843
0.000374843
0.000374844
0.000374844
0.000374843
0.000356863
0.000356868
0.000356868
0.000356868
0.000356869
0.00035687
0.00035687
0.00035687
0.00035687
0.00035687
0.000339988
0.000339992
0.000339992
0.000339993
0.000339993
0.000339994
0.000339994
0.000339994
0.000339994
0.000339994
0.00032411
0.000324115
0.000324115
0.000324115
0.000324115
0.000324116
0.000324116
0.000324116
0.000324116
0.000324116
0.000309144
0.000309148
0.000309148
0.000309148
0.000309149
0.000309149
0.000309149
0.000309149
0.000309149
0.000309149
0.000295012
0.000295016
0.000295017
0.000295016
0.000295017
0.000295017
0.000295017
0.000295017
0.000295017
0.000295017
0.000281648
0.000281652
0.000281652
0.000281652
0.000281652
0.000281652
0.000281652
0.000281652
0.000281652
0.000281652
0.000268991
0.000268994
0.000268995
0.000268994
0.000268994
0.000268995
0.000268995
0.000268995
0.000268994
0.000268994
0.000256987
0.000256991
0.000256991
0.000256991
0.000256991
0.000256991
0.000256991
0.000256991
0.000256991
0.000256991
0.000245591
0.000245594
0.000245594
0.000245594
0.000245594
0.000245594
0.000245594
0.000245594
0.000245594
0.000245593
0.000234758
0.000234761
0.000234761
0.000234761
0.000234761
0.000234761
0.000234761
0.000234761
0.000234761
0.00023476
0.000224452
0.000224455
0.000224455
0.000224454
0.000224454
0.000224454
0.000224454
0.000224454
0.000224454
0.000224454
0.000214637
0.000214641
0.00021464
0.00021464
0.00021464
0.00021464
0.000214639
0.000214639
0.000214639
0.000214639
0.000205285
0.000205288
0.000205287
0.000205287
0.000205287
0.000205287
0.000205286
0.000205286
0.000205286
0.000205286
0.000196366
0.000196369
0.000196369
0.000196368
0.000196368
0.000196368
0.000196367
0.000196367
0.000196367
0.000196367
0.000187857
0.000187859
0.000187859
0.000187858
0.000187858
0.000187858
0.000187858
0.000187857
0.000187857
0.000187857
0.000179734
0.000179736
0.000179736
0.000179735
0.000179735
0.000179735
0.000179734
0.000179734
0.000179734
0.000179734
0.000171978
0.00017198
0.000171979
0.000171979
0.000171978
0.000171978
0.000171978
0.000171978
0.000171978
0.000171978
0.000164569
0.000164571
0.000164571
0.00016457
0.00016457
0.00016457
0.000164569
0.000164569
0.000164569
0.000164569
0.000157493
0.000157494
0.000157494
0.000157493
0.000157493
0.000157493
0.000157492
0.000157492
0.000157492
0.000157492
0.000150732
0.000150734
0.000150733
0.000150733
0.000150732
0.000150732
0.000150732
0.000150732
0.000150731
0.000150732
0.000144274
0.000144276
0.000144275
0.000144274
0.000144274
0.000144274
0.000144274
0.000144273
0.000144273
0.000144274
0.000138106
0.000138108
0.000138107
0.000138106
0.000138106
0.000138106
0.000138106
0.000138105
0.000138105
0.000138105
0.000132217
0.000132218
0.000132218
0.000132217
0.000132216
0.000132216
0.000132216
0.000132216
0.000132216
0.000132216
0.000126596
0.000126597
0.000126596
0.000126595
0.000126595
0.000126595
0.000126595
0.000126594
0.000126594
0.000126595
0.000121233
0.000121234
0.000121233
0.000121232
0.000121232
0.000121232
0.000121232
0.000121231
0.000121231
0.000121232
0.00011612
0.000116121
0.00011612
0.000116119
0.000116119
0.000116119
0.000116118
0.000116118
0.000116118
0.000116118
0.000111248
0.000111249
0.000111248
0.000111247
0.000111247
0.000111247
0.000111247
0.000111246
0.000111246
0.000111247
0.00010661
0.000106611
0.00010661
0.000106609
0.000106609
0.000106609
0.000106609
0.000106608
0.000106608
0.000106609
0.0001022
0.0001022
0.000102199
0.000102198
0.000102198
0.000102198
0.000102197
0.000102197
0.000102197
0.000102198
9.80088e-05
9.80088e-05
9.80078e-05
9.80072e-05
9.80069e-05
9.80067e-05
9.80066e-05
9.80065e-05
9.80065e-05
9.80066e-05
9.40321e-05
9.4032e-05
9.40309e-05
9.40303e-05
9.403e-05
9.40299e-05
9.40298e-05
9.40297e-05
9.40297e-05
9.40298e-05
9.02637e-05
9.02633e-05
9.02623e-05
9.02617e-05
9.02614e-05
9.02613e-05
9.02612e-05
9.02611e-05
9.02611e-05
9.02612e-05
8.66978e-05
8.66973e-05
8.66963e-05
8.66957e-05
8.66954e-05
8.66953e-05
8.66952e-05
8.66951e-05
8.66951e-05
8.66953e-05
8.33294e-05
8.33287e-05
8.33276e-05
8.3327e-05
8.33268e-05
8.33267e-05
8.33267e-05
8.33266e-05
8.33266e-05
8.33267e-05
8.01533e-05
8.01524e-05
8.01513e-05
8.01507e-05
8.01506e-05
8.01505e-05
8.01504e-05
8.01503e-05
8.01503e-05
8.01505e-05
7.71646e-05
7.71636e-05
7.71625e-05
7.71619e-05
7.71617e-05
7.71617e-05
7.71616e-05
7.71615e-05
7.71615e-05
7.71616e-05
7.43587e-05
7.43575e-05
7.43563e-05
7.43558e-05
7.43557e-05
7.43556e-05
7.43555e-05
7.43555e-05
7.43555e-05
7.43556e-05
7.1731e-05
7.17296e-05
7.17285e-05
7.17279e-05
7.17278e-05
7.17278e-05
7.17277e-05
7.17276e-05
7.17276e-05
7.17278e-05
6.92771e-05
6.92756e-05
6.92744e-05
6.92739e-05
6.92738e-05
6.92738e-05
6.92737e-05
6.92737e-05
6.92737e-05
6.92738e-05
6.69928e-05
6.69912e-05
6.699e-05
6.69895e-05
6.69894e-05
6.69894e-05
6.69893e-05
6.69893e-05
6.69893e-05
6.69894e-05
6.4874e-05
6.48723e-05
6.48711e-05
6.48706e-05
6.48705e-05
6.48705e-05
6.48704e-05
6.48704e-05
6.48704e-05
6.48705e-05
6.29168e-05
6.29149e-05
6.29137e-05
6.29132e-05
6.29131e-05
6.29131e-05
6.29131e-05
6.2913e-05
6.2913e-05
6.29131e-05
6.11173e-05
6.11153e-05
6.1114e-05
6.11135e-05
6.11135e-05
6.11135e-05
6.11135e-05
6.11134e-05
6.11134e-05
6.11135e-05
5.94718e-05
5.94697e-05
5.94684e-05
5.9468e-05
5.94679e-05
5.94679e-05
5.94679e-05
5.94679e-05
5.94679e-05
5.94679e-05
5.7977e-05
5.79748e-05
5.79735e-05
5.7973e-05
5.7973e-05
5.7973e-05
5.7973e-05
5.7973e-05
5.79729e-05
5.7973e-05
5.66295e-05
5.66272e-05
5.66258e-05
5.66254e-05
5.66254e-05
5.66254e-05
5.66254e-05
5.66254e-05
5.66254e-05
5.66254e-05
5.54263e-05
5.54238e-05
5.54225e-05
5.54221e-05
5.54221e-05
5.54221e-05
5.54221e-05
5.54221e-05
5.54221e-05
5.54221e-05
5.43645e-05
5.4362e-05
5.43607e-05
5.43603e-05
5.43603e-05
5.43603e-05
5.43603e-05
5.43603e-05
5.43602e-05
5.43603e-05
5.34416e-05
5.3439e-05
5.34377e-05
5.34373e-05
5.34373e-05
5.34373e-05
5.34373e-05
5.34373e-05
5.34373e-05