/*--------------------------------*- C++ -*----------------------------------*\
| =========                 |                                                 |
| \\      /  F ield         | OpenFOAM: The Open Source CFD Toolbox           |
|  \\    /   O peration     | Version:  2.3.0                                 |
|   \\  /    A nd           | Web:      www.OpenFOAM.org                      |
|    \\/     M anipulation  |                                                 |
\*---------------------------------------------------------------------------*/
FoamFile
{
    version     2.0;
    format      ascii;
    class       volScalarField;
    location    "400";
    object      k;
}
// * * * * * * * * * * * * * * * * * * * * * * * * * * * * * * * * * * * * * //

dimensions      [0 2 -2 0 0 0 0];

internalField   nonuniform List<scalar> 
17000
(
0.00575679
0.00575678
0.00575677
0.00575675
0.00575675
0.00575675
0.00575675
0.00575676
0.00575676
0.00575677
0.00585597
0.00585595
0.00585594
0.00585592
0.00585591
0.00585591
0.00585591
0.00585592
0.00585593
0.00585594
0.00566365
0.00566363
0.00566361
0.00566359
0.00566358
0.00566358
0.00566358
0.00566359
0.0056636
0.00566362
0.00552713
0.0055271
0.00552708
0.00552706
0.00552705
0.00552704
0.00552705
0.00552706
0.00552707
0.00552709
0.00541851
0.00541848
0.00541845
0.00541843
0.00541842
0.00541842
0.00541842
0.00541843
0.00541845
0.00541847
0.00532433
0.00532431
0.00532427
0.00532425
0.00532424
0.00532424
0.00532424
0.00532426
0.00532427
0.00532429
0.00523839
0.00523837
0.00523833
0.0052383
0.00523829
0.00523829
0.0052383
0.00523831
0.00523833
0.00523835
0.00515758
0.00515755
0.00515751
0.00515748
0.00515747
0.00515747
0.00515748
0.00515749
0.00515751
0.00515753
0.00508018
0.00508015
0.00508011
0.00508008
0.00508007
0.00508007
0.00508008
0.0050801
0.00508012
0.00508014
0.00500522
0.00500519
0.00500515
0.00500511
0.0050051
0.0050051
0.00500512
0.00500514
0.00500516
0.00500518
0.00493208
0.00493204
0.004932
0.00493196
0.00493195
0.00493195
0.00493197
0.00493199
0.00493201
0.00493204
0.00486034
0.0048603
0.00486025
0.00486022
0.00486021
0.00486021
0.00486023
0.00486025
0.00486028
0.0048603
0.00478973
0.0047897
0.00478965
0.00478961
0.0047896
0.0047896
0.00478962
0.00478965
0.00478967
0.00478969
0.00472006
0.00472002
0.00471997
0.00471994
0.00471992
0.00471993
0.00471995
0.00471998
0.00472
0.00472002
0.00465118
0.00465115
0.00465109
0.00465106
0.00465105
0.00465105
0.00465107
0.0046511
0.00465113
0.00465115
0.00458299
0.00458295
0.0045829
0.00458287
0.00458285
0.00458286
0.00458288
0.00458291
0.00458294
0.00458296
0.0045154
0.00451537
0.00451532
0.00451528
0.00451527
0.00451528
0.0045153
0.00451533
0.00451536
0.00451538
0.00444836
0.00444833
0.00444828
0.00444824
0.00444823
0.00444824
0.00444826
0.00444829
0.00444832
0.00444834
0.00438181
0.00438178
0.00438173
0.00438169
0.00438168
0.00438169
0.00438172
0.00438175
0.00438178
0.00438179
0.00431572
0.00431568
0.00431563
0.0043156
0.00431559
0.0043156
0.00431563
0.00431566
0.00431569
0.0043157
0.00425004
0.00425001
0.00424996
0.00424993
0.00424992
0.00424993
0.00424996
0.00424999
0.00425002
0.00425003
0.00418477
0.00418474
0.00418469
0.00418466
0.00418465
0.00418467
0.00418469
0.00418473
0.00418475
0.00418477
0.00411988
0.00411985
0.0041198
0.00411977
0.00411977
0.00411978
0.00411981
0.00411984
0.00411987
0.00411988
0.00405536
0.00405533
0.00405528
0.00405525
0.00405525
0.00405526
0.00405529
0.00405533
0.00405535
0.00405536
0.0039912
0.00399116
0.00399112
0.00399109
0.00399108
0.0039911
0.00399113
0.00399117
0.00399119
0.0039912
0.00392738
0.00392735
0.0039273
0.00392728
0.00392727
0.00392729
0.00392732
0.00392736
0.00392738
0.00392739
0.00386391
0.00386387
0.00386383
0.00386381
0.00386381
0.00386383
0.00386386
0.00386389
0.00386391
0.00386392
0.00380078
0.00380075
0.00380071
0.00380068
0.00380069
0.00380071
0.00380074
0.00380077
0.00380079
0.00380079
0.003738
0.00373797
0.00373793
0.00373791
0.00373791
0.00373793
0.00373796
0.00373799
0.00373801
0.00373802
0.00367557
0.00367553
0.0036755
0.00367548
0.00367548
0.0036755
0.00367554
0.00367557
0.00367559
0.00367559
0.00361349
0.00361345
0.00361342
0.0036134
0.00361341
0.00361343
0.00361346
0.00361349
0.00361351
0.00361351
0.00355177
0.00355174
0.0035517
0.00355169
0.0035517
0.00355172
0.00355175
0.00355178
0.0035518
0.00355179
0.00349042
0.00349039
0.00349036
0.00349035
0.00349035
0.00349038
0.00349041
0.00349044
0.00349045
0.00349045
0.00342946
0.00342943
0.0034294
0.00342939
0.0034294
0.00342942
0.00342945
0.00342948
0.00342949
0.00342949
0.00336889
0.00336886
0.00336883
0.00336882
0.00336883
0.00336886
0.00336889
0.00336892
0.00336893
0.00336892
0.00330873
0.0033087
0.00330867
0.00330867
0.00330868
0.00330871
0.00330874
0.00330876
0.00330877
0.00330877
0.003249
0.00324897
0.00324895
0.00324894
0.00324895
0.00324898
0.00324901
0.00324904
0.00324905
0.00324904
0.00318971
0.00318968
0.00318966
0.00318966
0.00318968
0.0031897
0.00318973
0.00318976
0.00318976
0.00318975
0.00313089
0.00313087
0.00313085
0.00313085
0.00313086
0.00313089
0.00313092
0.00313094
0.00313095
0.00313094
0.00307256
0.00307254
0.00307252
0.00307252
0.00307254
0.00307257
0.0030726
0.00307262
0.00307262
0.00307261
0.00301474
0.00301472
0.0030147
0.00301471
0.00301473
0.00301476
0.00301478
0.0030148
0.0030148
0.00301479
0.00295746
0.00295744
0.00295743
0.00295743
0.00295745
0.00295748
0.00295751
0.00295753
0.00295753
0.00295751
0.00290075
0.00290073
0.00290071
0.00290072
0.00290074
0.00290077
0.0029008
0.00290081
0.00290081
0.0029008
0.00284463
0.00284461
0.0028446
0.00284461
0.00284463
0.00284466
0.00284468
0.0028447
0.0028447
0.00284468
0.00278913
0.00278911
0.00278911
0.00278912
0.00278914
0.00278917
0.00278919
0.00278921
0.0027892
0.00278918
0.0027343
0.00273428
0.00273427
0.00273428
0.00273431
0.00273434
0.00273436
0.00273437
0.00273437
0.00273435
0.00268015
0.00268013
0.00268013
0.00268014
0.00268017
0.00268019
0.00268022
0.00268023
0.00268022
0.0026802
0.00262673
0.00262671
0.00262671
0.00262673
0.00262675
0.00262678
0.0026268
0.00262681
0.0026268
0.00262678
0.00257408
0.00257406
0.00257406
0.00257407
0.0025741
0.00257413
0.00257415
0.00257415
0.00257415
0.00257413
0.00252222
0.00252221
0.00252221
0.00252222
0.00252225
0.00252228
0.0025223
0.0025223
0.00252229
0.00252227
0.00247121
0.0024712
0.0024712
0.00247122
0.00247124
0.00247127
0.00247129
0.00247129
0.00247128
0.00247126
0.00242108
0.00242107
0.00242107
0.00242109
0.00242112
0.00242114
0.00242116
0.00242116
0.00242115
0.00242113
0.00237188
0.00237186
0.00237187
0.00237189
0.00237191
0.00237194
0.00237196
0.00237196
0.00237195
0.00237193
0.00232364
0.00232363
0.00232363
0.00232365
0.00232368
0.0023237
0.00232372
0.00232372
0.00232371
0.00232369
0.00227641
0.0022764
0.00227641
0.00227643
0.00227645
0.00227648
0.00227649
0.00227649
0.00227648
0.00227646
0.00223024
0.00223023
0.00223023
0.00223026
0.00223028
0.00223031
0.00223032
0.00223032
0.0022303
0.00223028
0.00218516
0.00218515
0.00218516
0.00218518
0.00218521
0.00218523
0.00218524
0.00218524
0.00218523
0.00218521
0.00214123
0.00214122
0.00214123
0.00214125
0.00214128
0.0021413
0.00214131
0.00214131
0.00214129
0.00214127
0.00209848
0.00209847
0.00209848
0.00209851
0.00209853
0.00209855
0.00209856
0.00209856
0.00209855
0.00209853
0.00205697
0.00205696
0.00205697
0.00205699
0.00205702
0.00205704
0.00205705
0.00205704
0.00205703
0.00205701
0.00201672
0.00201672
0.00201673
0.00201675
0.00201678
0.0020168
0.0020168
0.0020168
0.00201678
0.00201677
0.0019778
0.00197779
0.0019778
0.00197783
0.00197785
0.00197787
0.00197788
0.00197787
0.00197786
0.00197784
0.00194023
0.00194022
0.00194024
0.00194026
0.00194028
0.0019403
0.00194031
0.0019403
0.00194029
0.00194027
0.00190406
0.00190405
0.00190406
0.00190409
0.00190411
0.00190413
0.00190413
0.00190413
0.00190411
0.00190409
0.00186932
0.00186931
0.00186933
0.00186935
0.00186937
0.00186939
0.00186939
0.00186939
0.00186937
0.00186935
0.00183605
0.00183605
0.00183606
0.00183608
0.0018361
0.00183612
0.00183612
0.00183612
0.0018361
0.00183608
0.00180429
0.00180428
0.0018043
0.00180432
0.00180434
0.00180435
0.00180436
0.00180435
0.00180433
0.00180432
0.00177406
0.00177406
0.00177407
0.00177409
0.00177411
0.00177412
0.00177413
0.00177412
0.0017741
0.00177409
0.00174539
0.00174539
0.00174541
0.00174543
0.00174545
0.00174546
0.00174546
0.00174545
0.00174544
0.00174542
0.00171832
0.00171832
0.00171833
0.00171835
0.00171837
0.00171839
0.00171839
0.00171838
0.00171836
0.00171835
0.00169286
0.00169286
0.00169288
0.0016929
0.00169292
0.00169293
0.00169293
0.00169292
0.00169291
0.00169289
0.00166904
0.00166904
0.00166906
0.00166908
0.00166909
0.0016691
0.00166911
0.0016691
0.00166908
0.00166907
0.00164688
0.00164688
0.00164689
0.00164691
0.00164693
0.00164694
0.00164694
0.00164693
0.00164692
0.0016469
0.00162638
0.00162638
0.00162639
0.00162641
0.00162643
0.00162644
0.00162644
0.00162643
0.00162642
0.00162641
0.00160757
0.00160757
0.00160758
0.0016076
0.00160762
0.00160763
0.00160763
0.00160762
0.0016076
0.00160759
0.00159045
0.00159045
0.00159047
0.00159048
0.0015905
0.00159051
0.00159051
0.0015905
0.00159049
0.00159048
0.00157504
0.00157504
0.00157505
0.00157507
0.00157509
0.0015751
0.00157509
0.00157509
0.00157507
0.00157506
0.00156134
0.00156134
0.00156135
0.00156137
0.00156139
0.00156139
0.00156139
0.00156138
0.00156137
0.00156136
0.00154935
0.00154935
0.00154937
0.00154939
0.0015494
0.00154941
0.00154941
0.0015494
0.00154938
0.00154937
0.00153909
0.00153909
0.0015391
0.00153912
0.00153913
0.00153914
0.00153914
0.00153913
0.00153912
0.00153911
0.00153055
0.00153055
0.00153056
0.00153058
0.00153059
0.0015306
0.0015306
0.00153059
0.00153058
0.00153057
0.00152373
0.00152373
0.00152374
0.00152376
0.00152377
0.00152378
0.00152378
0.00152377
0.00152376
0.00152375
0.00151864
0.00151864
0.00151865
0.00151867
0.00151868
0.00151869
0.00151869
0.00151868
0.00151866
0.00151866
0.00151527
0.00151527
0.00151528
0.0015153
0.00151531
0.00151532
0.00151532
0.00151531
0.0015153
0.00151529
0.00151363
0.00151363
0.00151364
0.00151366
0.00151367
0.00151368
0.00151368
0.00151367
0.00151365
0.00151365
0.00151371
0.00151371
0.00151372
0.00151374
0.00151375
0.00151376
0.00151376
0.00151375
0.00151374
0.00151373
0.00151551
0.00151551
0.00151553
0.00151554
0.00151556
0.00151556
0.00151556
0.00151555
0.00151554
0.00151553
0.00151904
0.00151904
0.00151905
0.00151907
0.00151908
0.00151909
0.00151909
0.00151908
0.00151907
0.00151906
0.00152428
0.00152429
0.0015243
0.00152431
0.00152433
0.00152434
0.00152433
0.00152433
0.00152431
0.0015243
0.00153125
0.00153125
0.00153126
0.00153128
0.00153129
0.0015313
0.0015313
0.00153129
0.00153128
0.00153127
0.00153992
0.00153993
0.00153994
0.00153995
0.00153997
0.00153998
0.00153998
0.00153997
0.00153995
0.00153994
0.00155031
0.00155031
0.00155033
0.00155034
0.00155036
0.00155037
0.00155037
0.00155036
0.00155034
0.00155033
0.00156241
0.00156241
0.00156242
0.00156244
0.00156245
0.00156246
0.00156246
0.00156245
0.00156244
0.00156243
0.00157621
0.00157621
0.00157622
0.00157624
0.00157625
0.00157626
0.00157626
0.00157625
0.00157624
0.00157623
0.0015917
0.0015917
0.00159171
0.00159173
0.00159174
0.00159175
0.00159175
0.00159174
0.00159173
0.00159172
0.00160888
0.00160887
0.00160889
0.00160891
0.00160892
0.00160893
0.00160893
0.00160892
0.00160891
0.0016089
0.00162773
0.00162773
0.00162774
0.00162776
0.00162778
0.00162779
0.00162779
0.00162778
0.00162777
0.00162775
0.00164825
0.00164825
0.00164826
0.00164828
0.0016483
0.00164831
0.00164831
0.0016483
0.00164829
0.00164827
0.00167042
0.00167042
0.00167043
0.00167045
0.00167047
0.00167048
0.00167049
0.00167048
0.00167046
0.00167045
0.00169423
0.00169422
0.00169424
0.00169426
0.00169428
0.00169429
0.00169429
0.00169429
0.00169427
0.00169425
0.00171965
0.00171965
0.00171966
0.00171968
0.0017197
0.00171971
0.00171972
0.00171971
0.00171969
0.00171968
0.00174667
0.00174666
0.00174668
0.0017467
0.00174672
0.00174673
0.00174674
0.00174673
0.00174671
0.0017467
0.00177526
0.00177525
0.00177526
0.00177529
0.00177531
0.00177532
0.00177533
0.00177532
0.00177531
0.00177529
0.0018054
0.00180539
0.0018054
0.00180542
0.00180544
0.00180546
0.00180547
0.00180546
0.00180544
0.00180543
0.00183705
0.00183704
0.00183705
0.00183707
0.0018371
0.00183712
0.00183712
0.00183712
0.0018371
0.00183708
0.00187019
0.00187018
0.00187019
0.00187022
0.00187024
0.00187026
0.00187027
0.00187026
0.00187025
0.00187023
0.00190479
0.00190478
0.00190479
0.00190481
0.00190484
0.00190486
0.00190487
0.00190486
0.00190484
0.00190482
0.00194081
0.0019408
0.0019408
0.00194083
0.00194085
0.00194087
0.00194088
0.00194088
0.00194086
0.00194084
0.00197821
0.0019782
0.0019782
0.00197822
0.00197825
0.00197827
0.00197829
0.00197828
0.00197827
0.00197824
0.00201695
0.00201694
0.00201695
0.00201697
0.002017
0.00201702
0.00201703
0.00201703
0.00201701
0.00201699
0.002057
0.00205699
0.002057
0.00205702
0.00205705
0.00205707
0.00205708
0.00205708
0.00205707
0.00205704
0.00209832
0.0020983
0.00209831
0.00209833
0.00209836
0.00209839
0.0020984
0.0020984
0.00209838
0.00209836
0.00214086
0.00214084
0.00214085
0.00214087
0.0021409
0.00214092
0.00214094
0.00214094
0.00214092
0.0021409
0.00218458
0.00218456
0.00218457
0.00218459
0.00218461
0.00218464
0.00218466
0.00218466
0.00218465
0.00218462
0.00222943
0.00222942
0.00222942
0.00222944
0.00222947
0.0022295
0.00222952
0.00222952
0.0022295
0.00222948
0.00227539
0.00227537
0.00227537
0.00227539
0.00227542
0.00227545
0.00227547
0.00227547
0.00227546
0.00227544
0.00232239
0.00232238
0.00232238
0.00232239
0.00232242
0.00232245
0.00232247
0.00232248
0.00232247
0.00232244
0.00237041
0.00237039
0.00237039
0.00237041
0.00237043
0.00237046
0.00237049
0.00237049
0.00237048
0.00237046
0.00241939
0.00241937
0.00241937
0.00241939
0.00241941
0.00241944
0.00241947
0.00241948
0.00241947
0.00241944
0.0024693
0.00246928
0.00246928
0.00246929
0.00246932
0.00246935
0.00246937
0.00246938
0.00246938
0.00246935
0.0025201
0.00252007
0.00252007
0.00252008
0.00252011
0.00252014
0.00252017
0.00252018
0.00252017
0.00252015
0.00257174
0.00257172
0.00257171
0.00257172
0.00257175
0.00257178
0.00257181
0.00257182
0.00257181
0.00257179
0.00262419
0.00262416
0.00262415
0.00262416
0.00262419
0.00262422
0.00262425
0.00262427
0.00262426
0.00262424
0.00267741
0.00267738
0.00267737
0.00267738
0.0026774
0.00267744
0.00267747
0.00267748
0.00267748
0.00267746
0.00273136
0.00273133
0.00273132
0.00273133
0.00273135
0.00273139
0.00273142
0.00273143
0.00273143
0.00273141
0.00278601
0.00278599
0.00278597
0.00278598
0.002786
0.00278603
0.00278606
0.00278608
0.00278608
0.00278607
0.00284133
0.0028413
0.00284129
0.00284129
0.00284131
0.00284135
0.00284138
0.0028414
0.0028414
0.00284139
0.00289729
0.00289726
0.00289724
0.00289724
0.00289726
0.00289729
0.00289733
0.00289735
0.00289735
0.00289734
0.00295385
0.00295382
0.0029538
0.0029538
0.00295381
0.00295385
0.00295388
0.0029539
0.00295391
0.0029539
0.00301098
0.00301095
0.00301093
0.00301093
0.00301094
0.00301097
0.00301101
0.00301103
0.00301104
0.00301103
0.00306867
0.00306864
0.00306861
0.00306861
0.00306862
0.00306865
0.00306869
0.00306871
0.00306873
0.00306872
0.00312688
0.00312684
0.00312682
0.00312681
0.00312682
0.00312685
0.00312689
0.00312692
0.00312693
0.00312692
0.00318559
0.00318555
0.00318552
0.00318551
0.00318553
0.00318556
0.00318559
0.00318562
0.00318564
0.00318563
0.00324477
0.00324474
0.00324471
0.0032447
0.00324471
0.00324474
0.00324477
0.00324481
0.00324482
0.00324482
0.00330442
0.00330439
0.00330436
0.00330434
0.00330435
0.00330438
0.00330441
0.00330445
0.00330447
0.00330446
0.00336451
0.00336448
0.00336444
0.00336442
0.00336443
0.00336446
0.00336449
0.00336453
0.00336455
0.00336455
0.00342502
0.00342499
0.00342495
0.00342493
0.00342494
0.00342496
0.003425
0.00342503
0.00342506
0.00342506
0.00348594
0.00348591
0.00348587
0.00348585
0.00348585
0.00348587
0.00348591
0.00348595
0.00348597
0.00348597
0.00354726
0.00354722
0.00354718
0.00354716
0.00354716
0.00354718
0.00354722
0.00354726
0.00354728
0.00354729
0.00360896
0.00360892
0.00360888
0.00360886
0.00360885
0.00360887
0.00360891
0.00360895
0.00360898
0.00360898
0.00367103
0.003671
0.00367095
0.00367093
0.00367092
0.00367094
0.00367098
0.00367102
0.00367104
0.00367105
0.00373347
0.00373344
0.0037334
0.00373337
0.00373336
0.00373338
0.00373341
0.00373345
0.00373348
0.00373349
0.00379628
0.00379624
0.0037962
0.00379617
0.00379616
0.00379617
0.00379621
0.00379625
0.00379628
0.00379629
0.00385944
0.0038594
0.00385936
0.00385932
0.00385931
0.00385933
0.00385936
0.0038594
0.00385943
0.00385945
0.00392295
0.00392292
0.00392287
0.00392284
0.00392283
0.00392284
0.00392287
0.00392291
0.00392294
0.00392296
0.00398683
0.0039868
0.00398675
0.00398671
0.0039867
0.00398671
0.00398674
0.00398678
0.00398681
0.00398683
0.00405107
0.00405103
0.00405099
0.00405095
0.00405093
0.00405094
0.00405097
0.00405101
0.00405105
0.00405107
0.00411567
0.00411564
0.00411559
0.00411555
0.00411554
0.00411554
0.00411557
0.00411561
0.00411565
0.00411567
0.00418065
0.00418062
0.00418057
0.00418053
0.00418052
0.00418052
0.00418055
0.00418059
0.00418062
0.00418065
0.00424603
0.004246
0.00424595
0.00424591
0.00424589
0.00424589
0.00424592
0.00424596
0.00424599
0.00424602
0.00431181
0.00431178
0.00431174
0.00431169
0.00431167
0.00431168
0.0043117
0.00431174
0.00431177
0.0043118
0.00437803
0.004378
0.00437796
0.00437791
0.00437789
0.00437789
0.00437792
0.00437795
0.00437799
0.00437802
0.00444472
0.00444469
0.00444464
0.0044446
0.00444458
0.00444458
0.0044446
0.00444463
0.00444467
0.00444469
0.0045119
0.00451187
0.00451183
0.00451179
0.00451176
0.00451176
0.00451178
0.00451181
0.00451185
0.00451188
0.00457964
0.00457961
0.00457956
0.00457952
0.0045795
0.0045795
0.00457951
0.00457955
0.00457958
0.00457961
0.00464799
0.00464796
0.00464791
0.00464787
0.00464785
0.00464785
0.00464786
0.00464789
0.00464793
0.00464796
0.00471703
0.004717
0.00471696
0.00471692
0.0047169
0.00471689
0.00471691
0.00471693
0.00471697
0.004717
0.00478687
0.00478685
0.0047868
0.00478677
0.00478674
0.00478674
0.00478675
0.00478678
0.00478681
0.00478684
0.00485766
0.00485763
0.00485759
0.00485755
0.00485753
0.00485753
0.00485753
0.00485756
0.00485759
0.00485762
0.00492958
0.00492955
0.00492951
0.00492948
0.00492946
0.00492945
0.00492946
0.00492948
0.00492951
0.00492954
0.00500291
0.00500288
0.00500285
0.00500281
0.00500279
0.00500279
0.00500279
0.00500281
0.00500284
0.00500287
0.00507805
0.00507803
0.005078
0.00507796
0.00507795
0.00507794
0.00507794
0.00507796
0.00507799
0.00507801
0.00515563
0.00515561
0.00515558
0.00515555
0.00515553
0.00515552
0.00515553
0.00515554
0.00515557
0.00515559
0.00523664
0.00523662
0.00523659
0.00523656
0.00523654
0.00523653
0.00523654
0.00523655
0.00523657
0.0052366
0.00532276
0.00532274
0.00532271
0.00532269
0.00532267
0.00532267
0.00532267
0.00532268
0.0053227
0.00532272
0.00541712
0.0054171
0.00541707
0.00541705
0.00541704
0.00541703
0.00541703
0.00541704
0.00541706
0.00541708
0.00552591
0.0055259
0.00552588
0.00552586
0.00552584
0.00552584
0.00552584
0.00552585
0.00552586
0.00552588
0.00566261
0.0056626
0.00566258
0.00566256
0.00566255
0.00566255
0.00566255
0.00566255
0.00566256
0.00566258
0.00585509
0.00585508
0.00585507
0.00585505
0.00585504
0.00585504
0.00585504
0.00585504
0.00585505
0.00585507
0.00575609
0.00575608
0.00575607
0.00575606
0.00575605
0.00575605
0.00575605
0.00575606
0.00575606
0.00575607
0.00575679
0.00575678
0.00575677
0.00575675
0.00575675
0.00575674
0.00575675
0.00575675
0.00575676
0.00575677
0.00585597
0.00585595
0.00585594
0.00585592
0.00585591
0.00585591
0.00585591
0.00585592
0.00585593
0.00585594
0.00566365
0.00566363
0.00566361
0.00566359
0.00566358
0.00566358
0.00566358
0.00566359
0.0056636
0.00566362
0.00552713
0.0055271
0.00552708
0.00552706
0.00552705
0.00552705
0.00552705
0.00552706
0.00552707
0.00552709
0.00541851
0.00541848
0.00541845
0.00541843
0.00541842
0.00541842
0.00541842
0.00541844
0.00541845
0.00541847
0.00532434
0.00532431
0.00532427
0.00532425
0.00532424
0.00532424
0.00532424
0.00532426
0.00532427
0.00532429
0.0052384
0.00523837
0.00523833
0.0052383
0.00523829
0.00523829
0.0052383
0.00523832
0.00523833
0.00523835
0.00515758
0.00515755
0.00515751
0.00515748
0.00515747
0.00515747
0.00515748
0.0051575
0.00515752
0.00515754
0.00508019
0.00508016
0.00508011
0.00508008
0.00508007
0.00508007
0.00508008
0.0050801
0.00508012
0.00508014
0.00500523
0.0050052
0.00500515
0.00500512
0.00500511
0.00500511
0.00500512
0.00500514
0.00500516
0.00500518
0.00493208
0.00493205
0.004932
0.00493197
0.00493195
0.00493196
0.00493197
0.00493199
0.00493202
0.00493204
0.00486034
0.00486031
0.00486026
0.00486022
0.00486021
0.00486021
0.00486023
0.00486025
0.00486028
0.0048603
0.00478973
0.0047897
0.00478965
0.00478961
0.0047896
0.00478961
0.00478962
0.00478965
0.00478967
0.00478969
0.00472006
0.00472003
0.00471998
0.00471994
0.00471993
0.00471993
0.00471995
0.00471998
0.00472
0.00472003
0.00465118
0.00465115
0.0046511
0.00465106
0.00465105
0.00465106
0.00465108
0.0046511
0.00465113
0.00465115
0.00458299
0.00458296
0.00458291
0.00458287
0.00458286
0.00458286
0.00458289
0.00458291
0.00458294
0.00458296
0.0045154
0.00451537
0.00451532
0.00451528
0.00451527
0.00451528
0.0045153
0.00451533
0.00451536
0.00451538
0.00444836
0.00444833
0.00444828
0.00444824
0.00444823
0.00444824
0.00444826
0.00444829
0.00444832
0.00444834
0.00438181
0.00438178
0.00438173
0.00438169
0.00438168
0.00438169
0.00438172
0.00438175
0.00438178
0.00438179
0.00431572
0.00431568
0.00431563
0.0043156
0.00431559
0.0043156
0.00431563
0.00431566
0.00431569
0.0043157
0.00425004
0.00425001
0.00424996
0.00424993
0.00424992
0.00424993
0.00424996
0.00424999
0.00425002
0.00425003
0.00418477
0.00418474
0.00418469
0.00418466
0.00418465
0.00418467
0.00418469
0.00418473
0.00418475
0.00418477
0.00411988
0.00411985
0.0041198
0.00411977
0.00411976
0.00411978
0.00411981
0.00411984
0.00411987
0.00411988
0.00405536
0.00405533
0.00405528
0.00405525
0.00405525
0.00405526
0.00405529
0.00405532
0.00405535
0.00405536
0.00399119
0.00399116
0.00399112
0.00399109
0.00399108
0.0039911
0.00399113
0.00399116
0.00399119
0.0039912
0.00392738
0.00392734
0.0039273
0.00392727
0.00392727
0.00392729
0.00392732
0.00392735
0.00392738
0.00392738
0.00386391
0.00386387
0.00386383
0.00386381
0.0038638
0.00386382
0.00386386
0.00386389
0.00386391
0.00386392
0.00380078
0.00380074
0.00380071
0.00380068
0.00380068
0.0038007
0.00380073
0.00380077
0.00380079
0.00380079
0.003738
0.00373796
0.00373792
0.0037379
0.0037379
0.00373793
0.00373796
0.00373799
0.00373801
0.00373801
0.00367556
0.00367553
0.00367549
0.00367547
0.00367548
0.0036755
0.00367553
0.00367556
0.00367558
0.00367558
0.00361348
0.00361345
0.00361342
0.0036134
0.0036134
0.00361343
0.00361346
0.00361349
0.00361351
0.00361351
0.00355176
0.00355173
0.0035517
0.00355168
0.00355169
0.00355171
0.00355175
0.00355178
0.00355179
0.00355179
0.00349042
0.00349038
0.00349035
0.00349034
0.00349035
0.00349037
0.00349041
0.00349043
0.00349045
0.00349045
0.00342945
0.00342942
0.00342939
0.00342938
0.00342939
0.00342942
0.00342945
0.00342948
0.00342949
0.00342948
0.00336888
0.00336885
0.00336882
0.00336881
0.00336883
0.00336885
0.00336889
0.00336891
0.00336892
0.00336892
0.00330872
0.00330869
0.00330867
0.00330866
0.00330867
0.0033087
0.00330873
0.00330876
0.00330877
0.00330876
0.00324899
0.00324896
0.00324894
0.00324893
0.00324895
0.00324898
0.00324901
0.00324903
0.00324904
0.00324903
0.0031897
0.00318968
0.00318966
0.00318965
0.00318967
0.0031897
0.00318973
0.00318975
0.00318976
0.00318975
0.00313088
0.00313086
0.00313084
0.00313084
0.00313086
0.00313088
0.00313091
0.00313093
0.00313094
0.00313093
0.00307255
0.00307253
0.00307251
0.00307251
0.00307253
0.00307256
0.00307259
0.00307261
0.00307261
0.0030726
0.00301474
0.00301471
0.0030147
0.0030147
0.00301472
0.00301475
0.00301478
0.00301479
0.0030148
0.00301478
0.00295746
0.00295743
0.00295742
0.00295742
0.00295744
0.00295747
0.0029575
0.00295752
0.00295752
0.0029575
0.00290074
0.00290072
0.00290071
0.00290071
0.00290074
0.00290076
0.00290079
0.00290081
0.00290081
0.00290079
0.00284462
0.0028446
0.00284459
0.0028446
0.00284462
0.00284465
0.00284468
0.00284469
0.00284469
0.00284467
0.00278913
0.0027891
0.0027891
0.00278911
0.00278913
0.00278916
0.00278919
0.0027892
0.00278919
0.00278918
0.00273429
0.00273427
0.00273426
0.00273427
0.0027343
0.00273433
0.00273435
0.00273436
0.00273436
0.00273434
0.00268014
0.00268012
0.00268012
0.00268013
0.00268016
0.00268019
0.00268021
0.00268022
0.00268021
0.00268019
0.00262672
0.00262671
0.0026267
0.00262672
0.00262674
0.00262677
0.00262679
0.0026268
0.00262679
0.00262678
0.00257407
0.00257405
0.00257405
0.00257407
0.00257409
0.00257412
0.00257414
0.00257415
0.00257414
0.00257412
0.00252221
0.0025222
0.0025222
0.00252222
0.00252224
0.00252227
0.00252229
0.0025223
0.00252229
0.00252227
0.0024712
0.00247119
0.00247119
0.00247121
0.00247124
0.00247126
0.00247128
0.00247128
0.00247127
0.00247126
0.00242107
0.00242106
0.00242106
0.00242108
0.00242111
0.00242114
0.00242115
0.00242116
0.00242115
0.00242113
0.00237187
0.00237186
0.00237186
0.00237188
0.00237191
0.00237193
0.00237195
0.00237195
0.00237194
0.00237192
0.00232363
0.00232362
0.00232363
0.00232365
0.00232367
0.0023237
0.00232371
0.00232371
0.0023237
0.00232368
0.0022764
0.00227639
0.0022764
0.00227642
0.00227645
0.00227647
0.00227649
0.00227649
0.00227647
0.00227645
0.00223023
0.00223022
0.00223023
0.00223025
0.00223028
0.0022303
0.00223031
0.00223031
0.0022303
0.00223028
0.00218515
0.00218515
0.00218515
0.00218518
0.0021852
0.00218523
0.00218524
0.00218524
0.00218522
0.0021852
0.00214122
0.00214121
0.00214122
0.00214125
0.00214127
0.00214129
0.0021413
0.0021413
0.00214129
0.00214127
0.00209848
0.00209847
0.00209848
0.0020985
0.00209853
0.00209855
0.00209856
0.00209856
0.00209854
0.00209852
0.00205696
0.00205695
0.00205696
0.00205699
0.00205701
0.00205703
0.00205704
0.00205704
0.00205702
0.00205701
0.00201672
0.00201671
0.00201672
0.00201675
0.00201677
0.00201679
0.0020168
0.0020168
0.00201678
0.00201676
0.00197779
0.00197779
0.0019778
0.00197782
0.00197785
0.00197787
0.00197787
0.00197787
0.00197785
0.00197783
0.00194022
0.00194022
0.00194023
0.00194025
0.00194028
0.0019403
0.0019403
0.0019403
0.00194028
0.00194026
0.00190405
0.00190405
0.00190406
0.00190408
0.00190411
0.00190412
0.00190413
0.00190412
0.00190411
0.00190409
0.00186931
0.00186931
0.00186932
0.00186935
0.00186937
0.00186938
0.00186939
0.00186938
0.00186937
0.00186935
0.00183605
0.00183604
0.00183606
0.00183608
0.0018361
0.00183612
0.00183612
0.00183611
0.0018361
0.00183608
0.00180428
0.00180428
0.00180429
0.00180431
0.00180434
0.00180435
0.00180435
0.00180435
0.00180433
0.00180432
0.00177405
0.00177405
0.00177407
0.00177409
0.00177411
0.00177412
0.00177413
0.00177412
0.0017741
0.00177409
0.00174539
0.00174539
0.0017454
0.00174542
0.00174544
0.00174546
0.00174546
0.00174545
0.00174544
0.00174542
0.00171832
0.00171832
0.00171833
0.00171835
0.00171837
0.00171838
0.00171839
0.00171838
0.00171836
0.00171835
0.00169286
0.00169286
0.00169288
0.0016929
0.00169291
0.00169293
0.00169293
0.00169292
0.0016929
0.00169289
0.00166904
0.00166904
0.00166905
0.00166907
0.00166909
0.0016691
0.0016691
0.0016691
0.00166908
0.00166907
0.00164688
0.00164688
0.00164689
0.00164691
0.00164693
0.00164694
0.00164694
0.00164693
0.00164691
0.0016469
0.00162638
0.00162638
0.00162639
0.00162641
0.00162643
0.00162644
0.00162644
0.00162643
0.00162642
0.00162641
0.00160757
0.00160757
0.00160758
0.0016076
0.00160762
0.00160763
0.00160763
0.00160762
0.0016076
0.00160759
0.00159045
0.00159045
0.00159047
0.00159048
0.0015905
0.00159051
0.00159051
0.0015905
0.00159049
0.00159048
0.00157504
0.00157504
0.00157505
0.00157507
0.00157509
0.0015751
0.00157509
0.00157509
0.00157507
0.00157506
0.00156134
0.00156134
0.00156135
0.00156137
0.00156139
0.00156139
0.00156139
0.00156138
0.00156137
0.00156136
0.00154935
0.00154935
0.00154937
0.00154939
0.0015494
0.00154941
0.00154941
0.0015494
0.00154938
0.00154937
0.00153909
0.00153909
0.0015391
0.00153912
0.00153913
0.00153914
0.00153914
0.00153913
0.00153912
0.00153911
0.00153055
0.00153055
0.00153056
0.00153058
0.00153059
0.0015306
0.0015306
0.00153059
0.00153058
0.00153057
0.00152373
0.00152373
0.00152374
0.00152376
0.00152377
0.00152378
0.00152378
0.00152377
0.00152376
0.00152375
0.00151864
0.00151864
0.00151865
0.00151867
0.00151868
0.00151869
0.00151869
0.00151868
0.00151867
0.00151866
0.00151527
0.00151527
0.00151528
0.0015153
0.00151531
0.00151532
0.00151532
0.00151531
0.0015153
0.00151529
0.00151363
0.00151363
0.00151364
0.00151366
0.00151367
0.00151368
0.00151368
0.00151367
0.00151365
0.00151365
0.00151371
0.00151371
0.00151372
0.00151374
0.00151375
0.00151376
0.00151376
0.00151375
0.00151374
0.00151373
0.00151551
0.00151551
0.00151553
0.00151554
0.00151556
0.00151556
0.00151556
0.00151555
0.00151554
0.00151553
0.00151904
0.00151904
0.00151905
0.00151907
0.00151908
0.00151909
0.00151909
0.00151908
0.00151907
0.00151906
0.00152428
0.00152429
0.0015243
0.00152431
0.00152433
0.00152434
0.00152433
0.00152432
0.00152431
0.0015243
0.00153125
0.00153125
0.00153126
0.00153128
0.00153129
0.0015313
0.0015313
0.00153129
0.00153128
0.00153126
0.00153992
0.00153992
0.00153994
0.00153995
0.00153997
0.00153998
0.00153998
0.00153997
0.00153995
0.00153994
0.00155031
0.00155031
0.00155032
0.00155034
0.00155036
0.00155037
0.00155036
0.00155036
0.00155034
0.00155033
0.00156241
0.00156241
0.00156242
0.00156244
0.00156245
0.00156246
0.00156246
0.00156245
0.00156244
0.00156243
0.0015762
0.0015762
0.00157622
0.00157623
0.00157625
0.00157626
0.00157626
0.00157625
0.00157624
0.00157622
0.0015917
0.00159169
0.00159171
0.00159172
0.00159174
0.00159175
0.00159175
0.00159174
0.00159173
0.00159172
0.00160887
0.00160887
0.00160888
0.0016089
0.00160892
0.00160893
0.00160893
0.00160892
0.00160891
0.00160889
0.00162773
0.00162773
0.00162774
0.00162776
0.00162778
0.00162779
0.00162779
0.00162778
0.00162776
0.00162775
0.00164825
0.00164825
0.00164826
0.00164828