/*--------------------------------*- C++ -*----------------------------------*\
| =========                 |                                                 |
| \\      /  F ield         | OpenFOAM: The Open Source CFD Toolbox           |
|  \\    /   O peration     | Version:  2.3.0                                 |
|   \\  /    A nd           | Web:      www.OpenFOAM.org                      |
|    \\/     M anipulation  |                                                 |
\*---------------------------------------------------------------------------*/
FoamFile
{
    version     2.0;
    format      ascii;
    class       volScalarField;
    location    "400";
    object      nut;
}
// * * * * * * * * * * * * * * * * * * * * * * * * * * * * * * * * * * * * * //

dimensions      [0 2 -1 0 0 0 0];

internalField   nonuniform List<scalar> 
17000
(
0.000100228
0.000100228
0.000100228
0.000100227
0.000100227
0.000100227
0.000100227
0.000100227
0.000100227
0.000100228
0.000263895
0.000263894
0.000263893
0.000263892
0.000263892
0.000263892
0.000263892
0.000263892
0.000263892
0.000263893
0.000430506
0.000430504
0.000430502
0.0004305
0.000430499
0.000430498
0.000430499
0.000430499
0.0004305
0.000430502
0.000597707
0.000597703
0.000597699
0.000597696
0.000597694
0.000597694
0.000597694
0.000597695
0.000597697
0.0005977
0.000761308
0.000761303
0.000761296
0.000761291
0.000761288
0.000761287
0.000761288
0.00076129
0.000761293
0.000761297
0.000919735
0.000919729
0.000919719
0.000919712
0.000919708
0.000919707
0.000919708
0.000919711
0.000919716
0.00091972
0.00107244
0.00107243
0.00107242
0.00107241
0.0010724
0.0010724
0.0010724
0.0010724
0.00107241
0.00107242
0.00121927
0.00121926
0.00121925
0.00121924
0.00121923
0.00121923
0.00121923
0.00121923
0.00121924
0.00121925
0.00136029
0.00136028
0.00136026
0.00136025
0.00136024
0.00136024
0.00136024
0.00136025
0.00136026
0.00136027
0.00149562
0.00149561
0.00149559
0.00149557
0.00149556
0.00149556
0.00149556
0.00149557
0.00149558
0.00149559
0.00162542
0.0016254
0.00162538
0.00162536
0.00162535
0.00162534
0.00162535
0.00162536
0.00162537
0.00162538
0.00174986
0.00174984
0.00174981
0.00174979
0.00174977
0.00174977
0.00174978
0.00174979
0.0017498
0.00174982
0.00186912
0.0018691
0.00186906
0.00186904
0.00186902
0.00186902
0.00186903
0.00186904
0.00186906
0.00186907
0.00198337
0.00198334
0.0019833
0.00198327
0.00198326
0.00198325
0.00198326
0.00198328
0.0019833
0.00198331
0.00209276
0.00209273
0.00209269
0.00209266
0.00209264
0.00209264
0.00209265
0.00209267
0.00209269
0.00209271
0.00219747
0.00219743
0.00219739
0.00219736
0.00219734
0.00219734
0.00219735
0.00219737
0.00219739
0.00219741
0.00229763
0.00229759
0.00229755
0.00229751
0.00229749
0.00229749
0.00229751
0.00229753
0.00229755
0.00229757
0.0023934
0.00239336
0.00239331
0.00239327
0.00239325
0.00239325
0.00239326
0.00239329
0.00239332
0.00239334
0.0024849
0.00248485
0.0024848
0.00248476
0.00248474
0.00248474
0.00248476
0.00248479
0.00248482
0.00248484
0.00257227
0.00257221
0.00257216
0.00257211
0.00257209
0.0025721
0.00257212
0.00257215
0.00257218
0.0025722
0.00265562
0.00265556
0.00265551
0.00265546
0.00265544
0.00265545
0.00265547
0.00265551
0.00265554
0.00265556
0.00273509
0.00273502
0.00273496
0.00273492
0.0027349
0.00273491
0.00273493
0.00273497
0.002735
0.00273502
0.00281077
0.0028107
0.00281064
0.00281059
0.00281058
0.00281059
0.00281062
0.00281066
0.00281069
0.00281071
0.00288279
0.00288272
0.00288265
0.00288261
0.00288259
0.0028826
0.00288264
0.00288268
0.00288271
0.00288273
0.00295125
0.00295117
0.00295111
0.00295106
0.00295105
0.00295106
0.0029511
0.00295114
0.00295118
0.00295119
0.00301625
0.00301617
0.00301611
0.00301606
0.00301605
0.00301607
0.00301611
0.00301615
0.00301619
0.0030162
0.00307791
0.00307782
0.00307776
0.00307771
0.0030777
0.00307773
0.00307777
0.00307782
0.00307785
0.00307786
0.00313631
0.00313622
0.00313615
0.00313611
0.00313611
0.00313613
0.00313618
0.00313623
0.00313626
0.00313627
0.00319157
0.00319147
0.0031914
0.00319137
0.00319136
0.00319139
0.00319144
0.00319149
0.00319152
0.00319153
0.00324377
0.00324367
0.0032436
0.00324356
0.00324356
0.0032436
0.00324365
0.0032437
0.00324373
0.00324374
0.00329301
0.00329291
0.00329284
0.00329281
0.00329281
0.00329285
0.0032929
0.00329296
0.00329299
0.00329299
0.0033394
0.00333929
0.00333923
0.0033392
0.00333921
0.00333925
0.0033393
0.00333936
0.00333939
0.00333939
0.00338302
0.00338292
0.00338285
0.00338283
0.00338284
0.00338288
0.00338294
0.003383
0.00338303
0.00338302
0.00342398
0.00342388
0.00342382
0.00342379
0.00342381
0.00342386
0.00342392
0.00342397
0.003424
0.00342399
0.00346238
0.00346227
0.00346221
0.00346219
0.00346221
0.00346227
0.00346233
0.00346238
0.00346241
0.0034624
0.0034983
0.00349819
0.00349814
0.00349813
0.00349815
0.00349821
0.00349827
0.00349832
0.00349835
0.00349833
0.00353186
0.00353174
0.00353169
0.00353169
0.00353172
0.00353178
0.00353184
0.00353189
0.00353191
0.0035319
0.00356314
0.00356302
0.00356298
0.00356298
0.00356301
0.00356307
0.00356314
0.00356319
0.00356321
0.00356319
0.00359225
0.00359213
0.00359209
0.00359209
0.00359213
0.0035922
0.00359227
0.00359232
0.00359233
0.0035923
0.00361928
0.00361917
0.00361913
0.00361914
0.00361918
0.00361925
0.00361932
0.00361937
0.00361938
0.00361935
0.00364434
0.00364423
0.0036442
0.00364421
0.00364426
0.00364433
0.0036444
0.00364445
0.00364446
0.00364442
0.00366754
0.00366743
0.0036674
0.00366742
0.00366747
0.00366755
0.00366762
0.00366766
0.00366767
0.00366763
0.00368897
0.00368886
0.00368883
0.00368886
0.00368892
0.003689
0.00368907
0.00368911
0.00368911
0.00368907
0.00370874
0.00370863
0.00370861
0.00370864
0.00370871
0.00370879
0.00370886
0.0037089
0.00370889
0.00370885
0.00372695
0.00372684
0.00372683
0.00372687
0.00372694
0.00372702
0.00372709
0.00372713
0.00372712
0.00372707
0.00374371
0.00374361
0.0037436
0.00374365
0.00374372
0.0037438
0.00374387
0.00374391
0.0037439
0.00374385
0.00375913
0.00375903
0.00375903
0.00375908
0.00375916
0.00375925
0.00375931
0.00375934
0.00375933
0.00375928
0.00377332
0.00377322
0.00377323
0.00377328
0.00377336
0.00377345
0.00377352
0.00377355
0.00377353
0.00377347
0.00378637
0.00378628
0.00378629
0.00378636
0.00378644
0.00378653
0.00378659
0.00378662
0.0037866
0.00378654
0.00379841
0.00379832
0.00379834
0.00379841
0.0037985
0.00379859
0.00379865
0.00379867
0.00379864
0.00379858
0.00380953
0.00380945
0.00380947
0.00380955
0.00380964
0.00380973
0.00380979
0.00380981
0.00380978
0.00380971
0.00381985
0.00381977
0.0038198
0.00381988
0.00381997
0.00382006
0.00382012
0.00382014
0.0038201
0.00382004
0.00382946
0.00382939
0.00382942
0.00382951
0.0038296
0.00382969
0.00382975
0.00382976
0.00382973
0.00382966
0.00383847
0.00383841
0.00383845
0.00383854
0.00383864
0.00383873
0.00383878
0.00383879
0.00383875
0.00383868
0.00384699
0.00384693
0.00384698
0.00384707
0.00384717
0.00384726
0.00384731
0.00384732
0.00384728
0.0038472
0.0038551
0.00385505
0.0038551
0.0038552
0.0038553
0.00385539
0.00385544
0.00385544
0.0038554
0.00385532
0.00386291
0.00386286
0.00386292
0.00386302
0.00386313
0.00386322
0.00386326
0.00386326
0.00386321
0.00386314
0.0038705
0.00387046
0.00387052
0.00387063
0.00387074
0.00387082
0.00387087
0.00387086
0.00387081
0.00387073
0.00387795
0.00387792
0.00387799
0.0038781
0.00387821
0.00387829
0.00387834
0.00387833
0.00387827
0.0038782
0.00388535
0.00388533
0.0038854
0.00388551
0.00388562
0.00388571
0.00388575
0.00388573
0.00388568
0.0038856
0.00389276
0.00389275
0.00389283
0.00389294
0.00389305
0.00389313
0.00389317
0.00389315
0.0038931
0.00389302
0.00390024
0.00390024
0.00390033
0.00390045
0.00390055
0.00390063
0.00390067
0.00390065
0.00390059
0.00390051
0.00390786
0.00390786
0.00390796
0.00390807
0.00390818
0.00390826
0.00390829
0.00390827
0.00390821
0.00390813
0.00391563
0.00391565
0.00391575
0.00391587
0.00391598
0.00391605
0.00391608
0.00391606
0.00391599
0.00391592
0.00392361
0.00392364
0.00392374
0.00392386
0.00392397
0.00392404
0.00392407
0.00392404
0.00392398
0.0039239
0.0039318
0.00393184
0.00393195
0.00393207
0.00393218
0.00393225
0.00393227
0.00393224
0.00393218
0.0039321
0.00394021
0.00394027
0.00394038
0.00394051
0.00394061
0.00394068
0.00394069
0.00394066
0.0039406
0.00394053
0.00394884
0.0039489
0.00394903
0.00394915
0.00394925
0.00394931
0.00394933
0.0039493
0.00394923
0.00394916
0.00395766
0.00395773
0.00395786
0.00395798
0.00395808
0.00395814
0.00395816
0.00395812
0.00395806
0.00395799
0.00396663
0.00396672
0.00396685
0.00396697
0.00396707
0.00396713
0.00396714
0.0039671
0.00396704
0.00396697
0.0039757
0.00397581
0.00397595
0.00397607
0.00397616
0.00397622
0.00397623
0.00397619
0.00397612
0.00397606
0.00398482
0.00398494
0.00398508
0.00398521
0.0039853
0.00398535
0.00398536
0.00398532
0.00398525
0.00398519
0.00399391
0.00399405
0.00399419
0.00399432
0.00399441
0.00399446
0.00399446
0.00399442
0.00399435
0.00399429
0.00400289
0.00400304
0.00400319
0.00400331
0.0040034
0.00400344
0.00400344
0.0040034
0.00400334
0.00400328
0.00401166
0.00401182
0.00401197
0.0040121
0.00401218
0.00401222
0.00401222
0.00401218
0.00401212
0.00401206
0.00402012
0.00402029
0.00402045
0.00402057
0.00402065
0.0040207
0.00402069
0.00402065
0.00402059
0.00402053
0.00402817
0.00402835
0.00402851
0.00402864
0.00402872
0.00402875
0.00402875
0.00402871
0.00402864
0.00402859
0.0040357
0.00403589
0.00403606
0.00403618
0.00403626
0.0040363
0.00403629
0.00403624
0.00403618
0.00403613
0.00404261
0.00404281
0.00404298
0.0040431
0.00404318
0.00404321
0.0040432
0.00404316
0.0040431
0.00404304
0.00404879
0.00404901
0.00404918
0.0040493
0.00404937
0.0040494
0.0040494
0.00404935
0.00404929
0.00404923
0.00405416
0.00405438
0.00405456
0.00405467
0.00405475
0.00405478
0.00405477
0.00405472
0.00405466
0.00405461
0.00405863
0.00405885
0.00405903
0.00405915
0.00405922
0.00405925
0.00405924
0.00405919
0.00405913
0.00405908
0.00406212
0.00406235
0.00406253
0.00406265
0.00406272
0.00406275
0.00406274
0.00406269
0.00406263
0.00406258
0.00406458
0.00406482
0.004065
0.00406511
0.00406518
0.00406521
0.0040652
0.00406516
0.00406509
0.00406504
0.00406598
0.00406621
0.00406639
0.00406651
0.00406658
0.00406661
0.0040666
0.00406655
0.00406649
0.00406644
0.00406628
0.00406651
0.00406669
0.0040668
0.00406687
0.0040669
0.00406689
0.00406685
0.00406678
0.00406673
0.00406547
0.00406571
0.00406588
0.004066
0.00406607
0.0040661
0.00406609
0.00406604
0.00406598
0.00406593
0.00406359
0.00406382
0.00406399
0.00406411
0.00406418
0.00406421
0.0040642
0.00406415
0.00406409
0.00406404
0.00406064
0.00406087
0.00406104
0.00406115
0.00406123
0.00406126
0.00406125
0.00406121
0.00406114
0.00406109
0.00405669
0.00405691
0.00405708
0.00405719
0.00405727
0.00405731
0.0040573
0.00405725
0.00405719
0.00405713
0.0040518
0.00405201
0.00405217
0.00405229
0.00405237
0.0040524
0.0040524
0.00405235
0.00405229
0.00405223
0.00404604
0.00404623
0.0040464
0.00404651
0.00404659
0.00404663
0.00404663
0.00404658
0.00404652
0.00404645
0.00403949
0.00403968
0.00403984
0.00403995
0.00404004
0.00404008
0.00404007
0.00404003
0.00403996
0.0040399
0.00403226
0.00403244
0.00403259
0.00403271
0.00403279
0.00403284
0.00403284
0.00403279
0.00403272
0.00403266
0.00402445
0.00402461
0.00402476
0.00402487
0.00402496
0.00402501
0.00402501
0.00402497
0.0040249
0.00402483
0.00401615
0.00401629
0.00401644
0.00401656
0.00401665
0.0040167
0.0040167
0.00401666
0.00401659
0.00401652
0.00400747
0.0040076
0.00400774
0.00400786
0.00400795
0.004008
0.00400801
0.00400797
0.0040079
0.00400783
0.0039985
0.00399862
0.00399876
0.00399887
0.00399897
0.00399903
0.00399904
0.003999
0.00399893
0.00399885
0.00398935
0.00398946
0.00398959
0.0039897
0.0039898
0.00398986
0.00398988
0.00398984
0.00398977
0.00398969
0.0039801
0.00398019
0.00398031
0.00398043
0.00398053
0.0039806
0.00398061
0.00398058
0.00398051
0.00398043
0.00397082
0.0039709
0.00397101
0.00397113
0.00397124
0.00397131
0.00397133
0.00397129
0.00397122
0.00397114
0.00396158
0.00396165
0.00396176
0.00396188
0.00396198
0.00396205
0.00396208
0.00396205
0.00396197
0.00396189
0.00395244
0.00395249
0.00395259
0.00395271
0.00395282
0.0039529
0.00395292
0.00395289
0.00395282
0.00395274
0.00394343
0.00394347
0.00394357
0.00394368
0.00394379
0.00394387
0.0039439
0.00394388
0.00394381
0.00394372
0.00393458
0.00393461
0.0039347
0.00393482
0.00393493
0.00393501
0.00393505
0.00393502
0.00393495
0.00393487
0.00392591
0.00392593
0.00392601
0.00392613
0.00392624
0.00392633
0.00392637
0.00392634
0.00392628
0.00392619
0.00391742
0.00391742
0.00391751
0.00391762
0.00391773
0.00391782
0.00391786
0.00391785
0.00391778
0.00391769
0.0039091
0.00390909
0.00390917
0.00390928
0.00390939
0.00390948
0.00390953
0.00390952
0.00390945
0.00390936
0.00390092
0.0039009
0.00390097
0.00390108
0.00390119
0.00390129
0.00390134
0.00390133
0.00390127
0.00390118
0.00389285
0.00389282
0.00389289
0.00389299
0.00389311
0.0038932
0.00389326
0.00389325
0.00389319
0.0038931
0.00388484
0.00388481
0.00388487
0.00388497
0.00388508
0.00388518
0.00388524
0.00388524
0.00388518
0.00388509
0.00387685
0.0038768
0.00387685
0.00387695
0.00387707
0.00387717
0.00387723
0.00387723
0.00387717
0.00387709
0.00386879
0.00386874
0.00386879
0.00386888
0.00386899
0.0038691
0.00386916
0.00386917
0.00386912
0.00386903
0.00386061
0.00386055
0.00386059
0.00386068
0.0038608
0.0038609
0.00386097
0.00386097
0.00386093
0.00386084
0.00385223
0.00385216
0.0038522
0.00385228
0.00385239
0.00385249
0.00385256
0.00385258
0.00385253
0.00385245
0.00384355
0.00384348
0.00384351
0.00384359
0.0038437
0.0038438
0.00384387
0.00384389
0.00384385
0.00384377
0.0038345
0.00383442
0.00383444
0.00383452
0.00383462
0.00383472
0.0038348
0.00383482
0.00383479
0.00383471
0.00382497
0.00382488
0.0038249
0.00382497
0.00382507
0.00382517
0.00382525
0.00382528
0.00382525
0.00382517
0.00381486
0.00381478
0.00381478
0.00381485
0.00381495
0.00381505
0.00381513
0.00381516
0.00381514
0.00381506
0.00380409
0.003804
0.003804
0.00380406
0.00380415
0.00380426
0.00380434
0.00380437
0.00380435
0.00380428
0.00379254
0.00379245
0.00379244
0.0037925
0.00379259
0.00379269
0.00379277
0.00379281
0.00379279
0.00379273
0.00378011
0.00378002
0.00378001
0.00378005
0.00378014
0.00378024
0.00378032
0.00378037
0.00378035
0.00378029
0.0037667
0.0037666
0.00376659
0.00376663
0.00376671
0.00376681
0.00376689
0.00376694
0.00376693
0.00376687
0.0037522
0.0037521
0.00375207
0.00375211
0.00375219
0.00375228
0.00375237
0.00375242
0.00375242
0.00375236
0.0037365
0.00373639
0.00373637
0.0037364
0.00373647
0.00373656
0.00373665
0.0037367
0.0037367
0.00373665
0.00371949
0.00371939
0.00371936
0.00371938
0.00371944
0.00371953
0.00371962
0.00371968
0.00371968
0.00371964
0.00370108
0.00370097
0.00370093
0.00370095
0.00370101
0.0037011
0.00370118
0.00370124
0.00370125
0.00370121
0.00368115
0.00368103
0.00368099
0.003681
0.00368106
0.00368114
0.00368123
0.00368129
0.00368131
0.00368127
0.00365959
0.00365948
0.00365943
0.00365944
0.00365948
0.00365957
0.00365965
0.00365972
0.00365973
0.0036597
0.0036363
0.00363619
0.00363614
0.00363614
0.00363618
0.00363626
0.00363635
0.00363641
0.00363643
0.00363641
0.00361119
0.00361107
0.00361102
0.00361101
0.00361105
0.00361112
0.00361121
0.00361127
0.0036113
0.00361128
0.00358413
0.00358402
0.00358396
0.00358395
0.00358398
0.00358405
0.00358413
0.0035842
0.00358423
0.00358421
0.00355504
0.00355493
0.00355487
0.00355485
0.00355487
0.00355494
0.00355502
0.00355509
0.00355512
0.00355511
0.0035238
0.00352369
0.00352363
0.00352361
0.00352363
0.00352369
0.00352376
0.00352383
0.00352387
0.00352386
0.00349032
0.00349022
0.00349015
0.00349012
0.00349014
0.00349019
0.00349027
0.00349034
0.00349038
0.00349038
0.0034545
0.0034544
0.00345433
0.0034543
0.00345431
0.00345436
0.00345443
0.0034545
0.00345454
0.00345454
0.00341624
0.00341614
0.00341607
0.00341603
0.00341604
0.00341608
0.00341615
0.00341622
0.00341627
0.00341627
0.00337544
0.00337534
0.00337527
0.00337523
0.00337523
0.00337527
0.00337533
0.0033754
0.00337545
0.00337546
0.00333199
0.00333189
0.00333182
0.00333178
0.00333177
0.00333181
0.00333187
0.00333194
0.00333199
0.003332
0.0032858
0.00328571
0.00328564
0.00328559
0.00328558
0.00328562
0.00328567
0.00328574
0.00328579
0.00328581
0.00323678
0.00323669
0.00323662
0.00323657
0.00323656
0.00323658
0.00323664
0.0032367
0.00323675
0.00323677
0.00318482
0.00318473
0.00318466
0.00318461
0.00318459
0.00318462
0.00318467
0.00318473
0.00318478
0.0031848
0.00312982
0.00312974
0.00312967
0.00312962
0.0031296
0.00312961
0.00312966
0.00312972
0.00312977
0.00312979
0.00307168
0.0030716
0.00307154
0.00307148
0.00307146
0.00307147
0.00307152
0.00307157
0.00307162
0.00307165
0.00301031
0.00301023
0.00301017
0.00301011
0.00301009
0.0030101
0.00301014
0.00301019
0.00301024
0.00301027
0.00294559
0.00294552
0.00294545
0.0029454
0.00294538
0.00294538
0.00294542
0.00294547
0.00294552
0.00294555
0.00287743
0.00287736
0.0028773
0.00287725
0.00287722
0.00287722
0.00287725
0.0028773
0.00287735
0.00287738
0.00280571
0.00280565
0.00280559
0.00280554
0.00280551
0.00280551
0.00280554
0.00280558
0.00280562
0.00280566
0.00273033
0.00273028
0.00273022
0.00273017
0.00273014
0.00273013
0.00273016
0.0027302
0.00273024
0.00273028
0.00265118
0.00265113
0.00265107
0.00265102
0.00265099
0.00265099
0.00265101
0.00265104
0.00265109
0.00265112
0.00256813
0.00256809
0.00256803
0.00256799
0.00256796
0.00256795
0.00256797
0.002568
0.00256804
0.00256807
0.00248107
0.00248103
0.00248099
0.00248094
0.00248091
0.0024809
0.00248092
0.00248095
0.00248098
0.00248102
0.00238988
0.00238985
0.0023898
0.00238976
0.00238973
0.00238972
0.00238973
0.00238976
0.00238979
0.00238982
0.00229442
0.00229439
0.00229435
0.00229431
0.00229428
0.00229427
0.00229428
0.0022943
0.00229434
0.00229437
0.00219456
0.00219453
0.00219449
0.00219445
0.00219443
0.00219442
0.00219443
0.00219445
0.00219447
0.0021945
0.00209015
0.00209012
0.00209009
0.00209005
0.00209003
0.00209002
0.00209002
0.00209004
0.00209007
0.00209009
0.00198103
0.00198101
0.00198098
0.00198095
0.00198093
0.00198092
0.00198092
0.00198094
0.00198096
0.00198099
0.00186707
0.00186705
0.00186702
0.001867
0.00186698
0.00186697
0.00186697
0.00186698
0.001867
0.00186702
0.00174808
0.00174806
0.00174804
0.00174802
0.001748
0.00174799
0.00174799
0.001748
0.00174802
0.00174804
0.0016239
0.00162388
0.00162386
0.00162384
0.00162383
0.00162382
0.00162382
0.00162383
0.00162384
0.00162386
0.00149434
0.00149433
0.00149431
0.0014943
0.00149428
0.00149428
0.00149428
0.00149428
0.0014943
0.00149431
0.00135924
0.00135924
0.00135922
0.00135921
0.00135919
0.00135919
0.00135919
0.00135919
0.0013592
0.00135922
0.00121844
0.00121843
0.00121842
0.00121841
0.0012184
0.00121839
0.00121839
0.0012184
0.0012184
0.00121841
0.00107179
0.00107179
0.00107178
0.00107177
0.00107176
0.00107176
0.00107176
0.00107176
0.00107177
0.00107178
0.000919266
0.000919261
0.000919254
0.000919247
0.000919242
0.000919239
0.000919238
0.000919241
0.000919246
0.000919252
0.000760987
0.000760984
0.000760979
0.000760974
0.000760971
0.000760968
0.000760968
0.00076097
0.000760973
0.000760977
0.00059751
0.000597507
0.000597504
0.000597501
0.000597499
0.000597497
0.000597497
0.000597498
0.0005975
0.000597503
0.000430403
0.000430401
0.0004304
0.000430398
0.000430397
0.000430396
0.000430396
0.000430396
0.000430397
0.000430399
0.000263855
0.000263855
0.000263854
0.000263853
0.000263853
0.000263852
0.000263852
0.000263852
0.000263853
0.000263854
0.000100222
0.000100222
0.000100221
0.000100221
0.000100221
0.000100221
0.000100221
0.000100221
0.000100221
0.000100221
0.000100228
0.000100228
0.000100228
0.000100227
0.000100227
0.000100227
0.000100227
0.000100227
0.000100227
0.000100228
0.000263895
0.000263894
0.000263893
0.000263892
0.000263892
0.000263892
0.000263892
0.000263892
0.000263892
0.000263893
0.000430506
0.000430504
0.000430502
0.0004305
0.000430499
0.000430499
0.000430499
0.0004305
0.000430501
0.000430502
0.000597708
0.000597704
0.0005977
0.000597696
0.000597695
0.000597694
0.000597695
0.000597696
0.000597698
0.0005977
0.000761308
0.000761303
0.000761297
0.000761291
0.000761289
0.000761288
0.000761289
0.000761291
0.000761294
0.000761297
0.000919736
0.000919729
0.00091972
0.000919713
0.000919709
0.000919708
0.000919709
0.000919712
0.000919716
0.000919721
0.00107244
0.00107243
0.00107242
0.00107241
0.0010724
0.0010724
0.0010724
0.00107241
0.00107241
0.00107242
0.00121927
0.00121926
0.00121925
0.00121924
0.00121923
0.00121923
0.00121923
0.00121924
0.00121924
0.00121925
0.00136029
0.00136028
0.00136026
0.00136025
0.00136024
0.00136024
0.00136024
0.00136025
0.00136026
0.00136027
0.00149562
0.00149561
0.00149559
0.00149557
0.00149556
0.00149556
0.00149556
0.00149557
0.00149558
0.00149559
0.00162542
0.0016254
0.00162538
0.00162536
0.00162535
0.00162534
0.00162535
0.00162536
0.00162537
0.00162538
0.00174986
0.00174984
0.00174981
0.00174979
0.00174978
0.00174977
0.00174978
0.00174979
0.00174981
0.00174982
0.00186912
0.0018691
0.00186906
0.00186904
0.00186902
0.00186902
0.00186903
0.00186904
0.00186906
0.00186907
0.00198337
0.00198334
0.0019833
0.00198327
0.00198326
0.00198325
0.00198326
0.00198328
0.0019833
0.00198332
0.00209276
0.00209273
0.00209269
0.00209266
0.00209264
0.00209264
0.00209265
0.00209267
0.00209269
0.00209271
0.00219747
0.00219743
0.00219739
0.00219736
0.00219734
0.00219734
0.00219735
0.00219737
0.00219739
0.00219741
0.00229764
0.0022976
0.00229755
0.00229751
0.00229749
0.00229749
0.00229751
0.00229753
0.00229755
0.00229757
0.0023934
0.00239336
0.00239331
0.00239327
0.00239325
0.00239325
0.00239326
0.00239329
0.00239332
0.00239334
0.0024849
0.00248485
0.0024848
0.00248476
0.00248474
0.00248474
0.00248476
0.00248479
0.00248482
0.00248484
0.00257227
0.00257221
0.00257216
0.00257211
0.00257209
0.0025721
0.00257212
0.00257215
0.00257218
0.0025722
0.00265562
0.00265556
0.00265551
0.00265546
0.00265544
0.00265545
0.00265547
0.00265551
0.00265554
0.00265556
0.00273509
0.00273502
0.00273496
0.00273492
0.0027349
0.00273491
0.00273493
0.00273497
0.002735
0.00273502
0.00281077
0.0028107
0.00281064
0.00281059
0.00281058
0.00281059
0.00281062
0.00281066
0.00281069
0.00281071
0.00288279
0.00288272
0.00288265
0.00288261
0.00288259
0.0028826
0.00288264
0.00288268
0.00288271
0.00288273
0.00295125
0.00295117
0.0029511
0.00295106
0.00295105
0.00295106
0.0029511
0.00295114
0.00295118
0.00295119
0.00301625
0.00301617
0.0030161
0.00301606
0.00301605
0.00301607
0.00301611
0.00301615
0.00301619
0.0030162
0.00307791
0.00307782
0.00307775
0.00307771
0.0030777
0.00307772
0.00307777
0.00307781
0.00307785
0.00307786
0.00313631
0.00313622
0.00313615
0.00313611
0.0031361
0.00313613
0.00313618
0.00313622
0.00313626
0.00313627
0.00319156
0.00319147
0.0031914
0.00319136
0.00319136
0.00319139
0.00319144
0.00319148
0.00319152
0.00319153
0.00324376
0.00324366
0.0032436
0.00324356
0.00324356
0.00324359
0.00324364
0.0032437
0.00324373
0.00324373
0.00329301
0.0032929
0.00329284
0.00329281
0.00329281
0.00329285
0.0032929
0.00329295
0.00329298
0.00329299
0.00333939
0.00333929
0.00333922
0.00333919
0.0033392
0.00333924
0.0033393
0.00333935
0.00333938
0.00333938
0.00338302
0.00338291
0.00338285
0.00338282
0.00338283
0.00338288
0.00338294
0.00338299
0.00338302
0.00338302
0.00342398
0.00342387
0.00342381
0.00342379
0.0034238
0.00342385
0.00342391
0.00342397
0.00342399
0.00342399
0.00346237
0.00346226
0.0034622
0.00346219
0.00346221
0.00346226
0.00346232
0.00346237
0.0034624
0.00346239
0.0034983
0.00349819
0.00349813
0.00349812
0.00349814
0.0034982
0.00349826
0.00349832
0.00349834
0.00349832
0.00353185
0.00353174
0.00353169
0.00353168
0.00353171
0.00353177
0.00353183
0.00353188
0.00353191
0.00353189
0.00356313
0.00356302
0.00356297
0.00356297
0.003563
0.00356306
0.00356313
0.00356318
0.0035632
0.00356318
0.00359224
0.00359212
0.00359208
0.00359208
0.00359212
0.00359219
0.00359226
0.00359231
0.00359232
0.0035923
0.00361927
0.00361916
0.00361912
0.00361913
0.00361917
0.00361924
0.00361931
0.00361936
0.00361937
0.00361934
0.00364433
0.00364422
0.00364419
0.0036442
0.00364425
0.00364432
0.00364439
0.00364444
0.00364445
0.00364441
0.00366753
0.00366742
0.00366739
0.00366741
0.00366746
0.00366754
0.00366761
0.00366765
0.00366766
0.00366762
0.00368896
0.00368885
0.00368882
0.00368885
0.00368891
0.00368899
0.00368906
0.0036891
0.0036891
0.00368906
0.00370873
0.00370862
0.0037086
0.00370863
0.0037087
0.00370878
0.00370885
0.00370888
0.00370888
0.00370884
0.00372694
0.00372683
0.00372682
0.00372686
0.00372693
0.00372701
0.00372708
0.00372712
0.00372711
0.00372706
0.0037437
0.0037436
0.00374359
0.00374364
0.00374371
0.00374379
0.00374386
0.0037439
0.00374389
0.00374383
0.00375912
0.00375902
0.00375902
0.00375907
0.00375915
0.00375923
0.0037593
0.00375933
0.00375932
0.00375926
0.00377331
0.00377321
0.00377321
0.00377327
0.00377335
0.00377344
0.00377351
0.00377353
0.00377352
0.00377346
0.00378636
0.00378627
0.00378628
0.00378634
0.00378643
0.00378652
0.00378658
0.00378661
0.00378659
0.00378653
0.0037984
0.00379831
0.00379833
0.0037984
0.00379848
0.00379857
0.00379864
0.00379866
0.00379863
0.00379857
0.00380952
0.00380944
0.00380946
0.00380953
0.00380963
0.00380972
0.00380978
0.0038098
0.00380977
0.0038097
0.00381984
0.00381976
0.00381979
0.00381987
0.00381996
0.00382005
0.00382011
0.00382013
0.00382009
0.00382003
0.00382945
0.00382938
0.00382941
0.00382949
0.00382959
0.00382968
0.00382974
0.00382975
0.00382972
0.00382965
0.00383846
0.0038384
0.00383844
0.00383853
0.00383863
0.00383872
0.00383877
0.00383878
0.00383874
0.00383867
0.00384698
0.00384692
0.00384697
0.00384706
0.00384716
0.00384725
0.0038473
0.00384731
0.00384727
0.00384719
0.00385509
0.00385504
0.00385509
0.00385519
0.00385529
0.00385538
0.00385543
0.00385543
0.00385539
0.00385532
0.0038629
0.00386285
0.00386291
0.00386301
0.00386312
0.00386321
0.00386326
0.00386325
0.00386321
0.00386313
0.00387049
0.00387045
0.00387052
0.00387062
0.00387073
0.00387081
0.00387086
0.00387085
0.0038708
0.00387073
0.00387795
0.00387791
0.00387799
0.00387809
0.0038782
0.00387829
0.00387833
0.00387832
0.00387827
0.00387819
0.00388534
0.00388532
0.0038854
0.00388551
0.00388562
0.0038857
0.00388574
0.00388573
0.00388567
0.0038856
0.00389276
0.00389274
0.00389282
0.00389294
0.00389305
0.00389313
0.00389317
0.00389315
0.00389309
0.00389302
0.00390024
0.00390024
0.00390033
0.00390044
0.00390055
0.00390063
0.00390066
0.00390065
0.00390059
0.00390051
0.00390785
0.00390786
0.00390795
0.00390807
0.00390818
0.00390826
0.00390829
0.00390827
0.00390821
0.00390813
0.00391563
0.00391565
0.00391575
0.00391587
0.00391598
0.00391605
0.00391608
0.00391606
0.00391599
0.00391592
0.00392361
0.00392364
0.00392374
0.00392386
0.00392397
0.00392404
0.00392407
0.00392404
0.00392398
0.0039239
0.0039318
0.00393184
0.00393195
0.00393208
0.00393218
0.00393225
0.00393227
0.00393224
0.00393218
0.00393211
0.00394022
0.00394027
0.00394039
0.00394051
0.00394061
0.00394068
0.0039407
0.00394067
0.0039406
0.00394053
0.00394884
0.00394891
0.00394903
0.00394915
0.00394926
0.00394932
0.00394934
0.0039493
0.00394924
0.00394917
0.00395766
0.00395774
0.00395787
0.00395799
0.00395809
0.00395815
0.00395816
0.00395813
0.00395807
0.00395799
0.00396664
0.00396673
0.00396686
0.00396698
0.00396708
0.00396714
0.00396715
0.00396711
0.00396705
0.00396698
0.00397571
0.00397582
0.00397596
0.00397608
0.00397617
0.00397623
0.00397624
0.0039762
0.00397613
0.00397607
0.00398484
0.00398495
0.0039851
0.00398522
0.00398531
0.00398536
0.00398537
0.00398533
0.00398527
0.0039852
0.00399393
0.00399406
0.00399421
0.00399433
0.00399442
0.00399447
0.00399447
0.00399443
0.00399437
0.0039943
0.00400291
0.00400305
0.0040032
0.00400332
0.00400341
0.00400346
0.00400346
0.00400342
0.00400335
0.00400329
0.00401168
0.00401183
0.00401199
0.00401211
0.0040122
0.00401224
0.00401224
0.0040122
0.00401213
0.00401207
0.00402014
0.00402031
0.00402047
0.00402059
0.00402067
0.00402071
0.00402071
0.00402067
0.0040206
0.00402055
0.00402819
0.00402837
0.00402853
0.00402865
0.00402874
0.00402877
0.00402877
0.00402873
0.00402866
0.00402861
0.00403572
0.00403591
0.00403608
0.0040362
0.00403628
0.00403632
0.00403631
0.00403627
0.0040362
0.00403615
0.00404263
0.00404283
0.004043
0.00404312
0.0040432
0.00404323
0.00404323
0.00404318
0.00404312
0.00404306
0.00404882
0.00404903
0.0040492
0.00404932
0.00404939
0.00404943
0.00404942
0.00404937
0.00404931
0.00404926
0.00405418
0.0040544
0.00405458
0.0040547
0.00405477
0.0040548
0.00405479
0.00405475
0.00405469
0.00405463
0.00405865
0.00405888
0.00405905
0.00405917
0.00405924
0.00405927
0.00405926
0.00405922
0.00405916
0.0040591
0.00406215
0.00406238
0.00406255
0.00406267
0.00406274
0.00406277
0.00406276
0.00406271
0.00406265
0.0040626
0.00406461
0.00406484
0.00406502
0.00406514
0.00406521
0.00406524
0.00406523
0.00406518
0.00406512
0.00406507
0.004066
0.00406624
0.00406641
0.00406653
0.0040666
0.00406663
0.00406662
0.00406657
0.00406651
0.00406646
0.0040663
0.00406653
0.00406671
0.00406683
0.0040669
0.00406693
0.00406692
0.00406687
0.00406681
0.00406676
0.0040655
0.00406573
0.0040659
0.00406602
0.00406609
0.00406612
0.00406611
0.00406607
0.004066
0.00406595
0.00406361
0.00406384
0.00406401
0.00406413
0.0040642
0.00406423
0.00406422
0.00406418
0.00406411
0.00406406
0.00406066
0.00406089
0.00406106
0.00406117
0.00406125
0.00406128
0.00406127
0.00406123
0.00406116
0.00406111
0.00405671
0.00405693
0.0040571
0.00405721
0.00405729
0.00405732
0.00405732
0.00405727
0.00405721
0.00405715
0.00405182
0.00405202
0.00405219
0.00405231
0.00405238
0.00405242
0.00405241
0.00405237
0.0040523
0.00405224
0.00404605
0.00404625
0.00404641
0.00404653
0.00404661
0.00404665
0.00404664
0.0040466
0.00404653
0.00404647
0.00403951
0.00403969
0.00403985
0.00403997
0.00404005
0.00404009
0.00404009
0.00404004
0.00403998
0.00403991
0.00403227
0.00403245
0.0040326
0.00403272
0.0040328
0.00403285
0.00403285
0.0040328
0.00403274
0.00403267
0.00402446
0.00402462
0.00402476
0.00402488
0.00402497
0.00402502
0.00402502
0.00402498
0.00402491
0.00402484
0.00401615
0.0040163
0.00401644
0.00401656
0.00401665
0.0040167
0.00401671
0.00401667
0.0040166
0.00401653
0.00400747
0.0040076