/*--------------------------------*- C++ -*----------------------------------*\
| =========                 |                                                 |
| \\      /  F ield         | OpenFOAM: The Open Source CFD Toolbox           |
|  \\    /   O peration     | Version:  2.3.0                                 |
|   \\  /    A nd           | Web:      www.OpenFOAM.org                      |
|    \\/     M anipulation  |                                                 |
\*---------------------------------------------------------------------------*/
FoamFile
{
    version     2.0;
    format      ascii;
    class       volScalarField;
    location    "400";
    object      p;
}
// * * * * * * * * * * * * * * * * * * * * * * * * * * * * * * * * * * * * * //

dimensions      [0 2 -2 0 0 0 0];

internalField   nonuniform List<scalar> 
17000
(
-3.0787e-09
1.22388e-08
-1.87336e-08
-4.22412e-08
-6.63419e-08
-8.08042e-08
-8.84753e-08
-8.63066e-08
-7.03208e-08
-4.99699e-08
-3.13165e-09
1.22487e-08
-1.86571e-08
-4.21759e-08
-6.63221e-08
-8.08204e-08
-8.85039e-08
-8.63327e-08
-7.03356e-08
-5.00031e-08
-3.18487e-09
1.22312e-08
-1.8587e-08
-4.21102e-08
-6.63049e-08
-8.08415e-08
-8.85341e-08
-8.63541e-08
-7.03395e-08
-5.0009e-08
-3.22166e-09
1.21792e-08
-1.85525e-08
-4.20657e-08
-6.62954e-08
-8.08613e-08
-8.85557e-08
-8.63608e-08
-7.03252e-08
-4.99752e-08
-3.23912e-09
1.20994e-08
-1.85561e-08
-4.20467e-08
-6.62949e-08
-8.08787e-08
-8.85672e-08
-8.63521e-08
-7.02934e-08
-4.99064e-08
-3.2386e-09
1.19986e-08
-1.85934e-08
-4.20519e-08
-6.63034e-08
-8.0894e-08
-8.85695e-08
-8.63295e-08
-7.02459e-08
-4.98083e-08
-3.22205e-09
1.18802e-08
-1.86606e-08
-4.20798e-08
-6.63209e-08
-8.09076e-08
-8.85634e-08
-8.62944e-08
-7.01842e-08
-4.96845e-08
-3.19151e-09
1.17458e-08
-1.87546e-08
-4.21286e-08
-6.6347e-08
-8.09196e-08
-8.85491e-08
-8.62472e-08
-7.01093e-08
-4.95378e-08
-3.14918e-09
1.15963e-08
-1.88728e-08
-4.21966e-08
-6.63811e-08
-8.09298e-08
-8.85266e-08
-8.61885e-08
-7.00221e-08
-4.93703e-08
-3.09743e-09
1.14321e-08
-1.90129e-08
-4.2282e-08
-6.64223e-08
-8.09377e-08
-8.84959e-08
-8.61189e-08
-6.99239e-08
-4.91843e-08
-3.03867e-09
1.12536e-08
-1.91724e-08
-4.23828e-08
-6.64695e-08
-8.09427e-08
-8.84567e-08
-8.60386e-08
-6.98157e-08
-4.89824e-08
-2.97533e-09
1.10612e-08
-1.93492e-08
-4.2497e-08
-6.65215e-08
-8.09441e-08
-8.84088e-08
-8.59483e-08
-6.96989e-08
-4.87672e-08
-2.90976e-09
1.08551e-08
-1.95412e-08
-4.26227e-08
-6.65769e-08
-8.0941e-08
-8.8352e-08
-8.58484e-08
-6.95746e-08
-4.85411e-08
-2.84424e-09
1.06358e-08
-1.97463e-08
-4.27578e-08
-6.66344e-08
-8.09328e-08
-8.8286e-08
-8.57395e-08
-6.94443e-08
-4.83069e-08
-2.78093e-09
1.04038e-08
-1.99628e-08
-4.29004e-08
-6.66926e-08
-8.09185e-08
-8.82108e-08
-8.56222e-08
-6.93091e-08
-4.80673e-08
-2.72186e-09
1.01597e-08
-2.01886e-08
-4.30486e-08
-6.67502e-08
-8.08976e-08
-8.81263e-08
-8.54972e-08
-6.91703e-08
-4.78248e-08
-2.66891e-09
9.90438e-09
-2.04219e-08
-4.32004e-08
-6.68057e-08
-8.08692e-08
-8.80326e-08
-8.53652e-08
-6.90294e-08
-4.75821e-08
-2.62379e-09
9.63853e-09
-2.06608e-08
-4.33541e-08
-6.68579e-08
-8.08329e-08
-8.79298e-08
-8.52269e-08
-6.88874e-08
-4.73416e-08
-2.58804e-09
9.36313e-09
-2.09038e-08
-4.35079e-08
-6.69055e-08
-8.07882e-08
-8.78181e-08
-8.50831e-08
-6.87455e-08
-4.71056e-08
-2.56304e-09
9.07918e-09
-2.11489e-08
-4.36601e-08
-6.69475e-08
-8.07347e-08
-8.76979e-08
-8.49348e-08
-6.86049e-08
-4.68763e-08
-2.54996e-09
8.78772e-09
-2.13946e-08
-4.38092e-08
-6.69829e-08
-8.06722e-08
-8.75696e-08
-8.47828e-08
-6.84667e-08
-4.66559e-08
-2.54983e-09
8.48988e-09
-2.16394e-08
-4.39536e-08
-6.70107e-08
-8.06004e-08
-8.74337e-08
-8.4628e-08
-6.83318e-08
-4.6446e-08
-2.56346e-09
8.18678e-09
-2.18816e-08
-4.40919e-08
-6.703e-08
-8.05194e-08
-8.72908e-08
-8.44712e-08
-6.82012e-08
-4.62485e-08
-2.59151e-09
7.8796e-09
-2.21199e-08
-4.42229e-08
-6.70403e-08
-8.04292e-08
-8.71415e-08
-8.43134e-08
-6.80757e-08
-4.60649e-08
-2.63445e-09
7.56951e-09
-2.23528e-08
-4.43454e-08
-6.70409e-08
-8.03299e-08
-8.69864e-08
-8.41554e-08
-6.79561e-08
-4.58964e-08
-2.69261e-09
7.25769e-09
-2.25792e-08
-4.44583e-08
-6.70314e-08
-8.02218e-08
-8.68264e-08
-8.39982e-08
-6.7843e-08
-4.57441e-08
-2.76614e-09
6.94533e-09
-2.27977e-08
-4.45607e-08
-6.70114e-08
-8.01052e-08
-8.66621e-08
-8.38425e-08
-6.77372e-08
-4.56091e-08
-2.85505e-09
6.63357e-09
-2.30074e-08
-4.46519e-08
-6.69807e-08
-7.99805e-08
-8.64944e-08
-8.36892e-08
-6.7639e-08
-4.5492e-08
-2.95921e-09
6.32355e-09
-2.32073e-08
-4.47311e-08
-6.69391e-08
-7.98482e-08
-8.63241e-08
-8.35391e-08
-6.75491e-08
-4.53935e-08
-3.07835e-09
6.01636e-09
-2.33963e-08
-4.47978e-08
-6.68866e-08
-7.97087e-08
-8.6152e-08
-8.33928e-08
-6.74677e-08
-4.53139e-08
-3.21209e-09
5.71308e-09
-2.35738e-08
-4.48514e-08
-6.68234e-08
-7.95627e-08
-8.59789e-08
-8.32512e-08
-6.73951e-08
-4.52535e-08
-3.35994e-09
5.41471e-09
-2.37391e-08
-4.48918e-08
-6.67495e-08
-7.94108e-08
-8.58055e-08
-8.31148e-08
-6.73316e-08
-4.52123e-08
-3.5213e-09
5.12221e-09
-2.38915e-08
-4.49187e-08
-6.66653e-08
-7.92536e-08
-8.56327e-08
-8.29842e-08
-6.72773e-08
-4.51903e-08
-3.69548e-09
4.83648e-09
-2.40305e-08
-4.4932e-08
-6.6571e-08
-7.90917e-08
-8.54613e-08
-8.28599e-08
-6.72323e-08
-4.51873e-08
-3.88172e-09
4.55837e-09
-2.41558e-08
-4.49317e-08
-6.64671e-08
-7.8926e-08
-8.52919e-08
-8.27424e-08
-6.71966e-08
-4.52029e-08
-4.07919e-09
4.28866e-09
-2.42671e-08
-4.49179e-08
-6.6354e-08
-7.87571e-08
-8.51252e-08
-8.26322e-08
-6.71702e-08
-4.52367e-08
-4.28699e-09
4.02803e-09
-2.43642e-08
-4.48909e-08
-6.62323e-08
-7.85858e-08
-8.4962e-08
-8.25295e-08
-6.71529e-08
-4.52881e-08
-4.5042e-09
3.77713e-09
-2.4447e-08
-4.48509e-08
-6.61026e-08
-7.84127e-08
-8.48027e-08
-8.24346e-08
-6.71445e-08
-4.53565e-08
-4.72983e-09
3.53651e-09
-2.45156e-08
-4.47983e-08
-6.59655e-08
-7.82385e-08
-8.46481e-08
-8.23477e-08
-6.71449e-08
-4.5441e-08
-4.96287e-09
3.30666e-09
-2.457e-08
-4.47337e-08
-6.58217e-08
-7.8064e-08
-8.44984e-08
-8.22691e-08
-6.71537e-08
-4.5541e-08
-5.2023e-09
3.08798e-09
-2.46105e-08
-4.46575e-08
-6.56719e-08
-7.78898e-08
-8.43543e-08
-8.21987e-08
-6.71706e-08
-4.56553e-08
-5.44709e-09
2.88081e-09
-2.46372e-08
-4.45704e-08
-6.55168e-08
-7.77167e-08
-8.42162e-08
-8.21366e-08
-6.71953e-08
-4.57832e-08
-5.69618e-09
2.6854e-09
-2.46506e-08
-4.44731e-08
-6.53571e-08
-7.75451e-08
-8.40843e-08
-8.20827e-08
-6.72272e-08
-4.59236e-08
-5.94855e-09
2.50195e-09
-2.46511e-08
-4.43662e-08
-6.51937e-08
-7.73757e-08
-8.3959e-08
-8.20371e-08
-6.72661e-08
-4.60754e-08
-6.20316e-09
2.33057e-09
-2.46393e-08
-4.42505e-08
-6.50273e-08
-7.72092e-08
-8.38405e-08
-8.19994e-08
-6.73113e-08
-4.62376e-08
-6.45902e-09
2.17131e-09
-2.46155e-08
-4.41269e-08
-6.48587e-08
-7.70459e-08
-8.37289e-08
-8.19696e-08
-6.73625e-08
-4.64091e-08
-6.71515e-09
2.02417e-09
-2.45805e-08
-4.39962e-08
-6.46886e-08
-7.68865e-08
-8.36245e-08
-8.19474e-08
-6.7419e-08
-4.65889e-08
-6.9706e-09
1.88907e-09
-2.4535e-08
-4.38592e-08
-6.45177e-08
-7.67313e-08
-8.35272e-08
-8.19325e-08
-6.74804e-08
-4.67758e-08
-7.22445e-09
1.7659e-09
-2.44796e-08
-4.37168e-08
-6.43469e-08
-7.65808e-08
-8.34372e-08
-8.19245e-08
-6.75461e-08
-4.69687e-08
-7.47584e-09
1.65448e-09
-2.4415e-08
-4.35698e-08
-6.41767e-08
-7.64353e-08
-8.33543e-08
-8.19232e-08
-6.76155e-08
-4.71666e-08
-7.72396e-09
1.55459e-09
-2.43421e-08
-4.34192e-08
-6.4008e-08
-7.62951e-08
-8.32785e-08
-8.19281e-08
-6.76881e-08
-4.73686e-08
-7.96804e-09
1.46598e-09
-2.42616e-08
-4.32659e-08
-6.38413e-08
-7.61606e-08
-8.32097e-08
-8.19388e-08
-6.77633e-08
-4.75735e-08
-8.20736e-09
1.38835e-09
-2.41744e-08
-4.31107e-08
-6.36772e-08
-7.6032e-08
-8.31477e-08
-8.19549e-08
-6.78406e-08
-4.77805e-08
-8.44128e-09
1.32138e-09
-2.40812e-08
-4.29544e-08
-6.35164e-08
-7.59094e-08
-8.30924e-08
-8.19758e-08
-6.79193e-08
-4.79887e-08
-8.6692e-09
1.26472e-09
-2.39828e-08
-4.27979e-08
-6.33594e-08
-7.5793e-08
-8.30434e-08
-8.20012e-08
-6.79991e-08
-4.81972e-08
-8.89061e-09
1.21798e-09
-2.38801e-08
-4.26419e-08
-6.32067e-08
-7.56829e-08
-8.30006e-08
-8.20305e-08
-6.80793e-08
-4.84053e-08
-9.10505e-09
1.18076e-09
-2.37738e-08
-4.24873e-08
-6.30587e-08
-7.55791e-08
-8.29637e-08
-8.20633e-08
-6.81595e-08
-4.86123e-08
-9.31213e-09
1.15264e-09
-2.36648e-08
-4.23346e-08
-6.29158e-08
-7.54818e-08
-8.29323e-08
-8.2099e-08
-6.82391e-08
-4.88174e-08
-9.51151e-09
1.13317e-09
-2.35537e-08
-4.21847e-08
-6.27784e-08
-7.53908e-08
-8.29062e-08
-8.21371e-08
-6.83177e-08
-4.90202e-08
-9.70296e-09
1.12189e-09
-2.34413e-08
-4.20381e-08
-6.26469e-08
-7.53061e-08
-8.28849e-08
-8.21772e-08
-6.8395e-08
-4.92201e-08
-9.88626e-09
1.11832e-09
-2.33283e-08
-4.18953e-08
-6.25214e-08
-7.52276e-08
-8.28681e-08
-8.22189e-08
-6.84704e-08
-4.94165e-08
-1.00613e-08
1.12194e-09
-2.32153e-08
-4.17569e-08
-6.24022e-08
-7.51552e-08
-8.28555e-08
-8.22616e-08
-6.85437e-08
-4.96092e-08
-1.0228e-08
1.13221e-09
-2.3103e-08
-4.16233e-08
-6.22893e-08
-7.50888e-08
-8.28466e-08
-8.23049e-08
-6.86145e-08
-4.97977e-08
-1.03863e-08
1.14857e-09
-2.2992e-08
-4.1495e-08
-6.2183e-08
-7.5028e-08
-8.28412e-08
-8.23484e-08
-6.86825e-08
-4.99816e-08
-1.05362e-08
1.17042e-09
-2.28828e-08
-4.13722e-08
-6.20832e-08
-7.49729e-08
-8.28387e-08
-8.23917e-08
-6.87475e-08
-5.01607e-08
-1.06779e-08
1.19712e-09
-2.27759e-08
-4.12553e-08
-6.199e-08
-7.4923e-08
-8.2839e-08
-8.24345e-08
-6.88092e-08
-5.03346e-08
-1.08114e-08
1.228e-09
-2.26718e-08
-4.11444e-08
-6.19032e-08
-7.48781e-08
-8.28415e-08
-8.24764e-08
-6.88675e-08
-5.05031e-08
-1.09369e-08
1.26234e-09
-2.2571e-08
-4.10396e-08
-6.18229e-08
-7.4838e-08
-8.2846e-08
-8.25172e-08
-6.89222e-08
-5.0666e-08
-1.10544e-08
1.29938e-09
-2.24739e-08
-4.09412e-08
-6.17487e-08
-7.48023e-08
-8.2852e-08
-8.25565e-08
-6.89734e-08
-5.08228e-08
-1.11643e-08
1.33831e-09
-2.23807e-08
-4.08491e-08
-6.16807e-08
-7.47708e-08
-8.28594e-08
-8.25942e-08
-6.90208e-08
-5.09733e-08
-1.12666e-08
1.3783e-09
-2.2292e-08
-4.07634e-08
-6.16185e-08
-7.47431e-08
-8.28678e-08
-8.263e-08
-6.90645e-08
-5.11173e-08
-1.13616e-08
1.41845e-09
-2.22079e-08
-4.0684e-08
-6.1562e-08
-7.4719e-08
-8.28769e-08
-8.26638e-08
-6.91046e-08
-5.12543e-08
-1.14494e-08
1.45785e-09
-2.21288e-08
-4.06108e-08
-6.15108e-08
-7.46981e-08
-8.28864e-08
-8.26955e-08
-6.91411e-08
-5.13839e-08
-1.15302e-08
1.49555e-09
-2.20549e-08
-4.05437e-08
-6.14647e-08
-7.46801e-08
-8.28961e-08
-8.2725e-08
-6.9174e-08
-5.15058e-08
-1.16042e-08
1.53059e-09
-2.19865e-08
-4.04826e-08
-6.14233e-08
-7.46646e-08
-8.29058e-08
-8.27522e-08
-6.92035e-08
-5.16196e-08
-1.16715e-08
1.56202e-09
-2.19237e-08
-4.04273e-08
-6.13865e-08
-7.46515e-08
-8.29153e-08
-8.2777e-08
-6.92297e-08
-5.17248e-08
-1.17323e-08
1.5889e-09
-2.18669e-08
-4.03777e-08
-6.13538e-08
-7.46404e-08
-8.29244e-08
-8.27995e-08
-6.92527e-08
-5.1821e-08
-1.17867e-08
1.61029e-09
-2.1816e-08
-4.03335e-08
-6.1325e-08
-7.4631e-08
-8.2933e-08
-8.28196e-08
-6.92728e-08
-5.19076e-08
-1.18348e-08
1.62534e-09
-2.17714e-08
-4.02946e-08
-6.12999e-08
-7.46232e-08
-8.29409e-08
-8.28373e-08
-6.92899e-08
-5.19844e-08
-1.18768e-08
1.63324e-09
-2.1733e-08
-4.02609e-08
-6.12781e-08
-7.46166e-08
-8.2948e-08
-8.28527e-08
-6.93043e-08
-5.20508e-08
-1.19126e-08
1.63326e-09
-2.17011e-08
-4.02321e-08
-6.12595e-08
-7.46112e-08
-8.29543e-08
-8.28658e-08
-6.9316e-08
-5.21065e-08
-1.19424e-08
1.62478e-09
-2.16757e-08
-4.02081e-08
-6.12438e-08
-7.46067e-08
-8.29595e-08
-8.28766e-08
-6.93253e-08
-5.21512e-08
-1.19663e-08
1.60728e-09
-2.16568e-08
-4.01888e-08
-6.1231e-08
-7.4603e-08
-8.29638e-08
-8.28852e-08
-6.93321e-08
-5.21846e-08
-1.19843e-08
1.58038e-09
-2.16445e-08
-4.01741e-08
-6.12208e-08
-7.46001e-08
-8.2967e-08
-8.28914e-08
-6.93365e-08
-5.22065e-08
-1.19965e-08
1.54382e-09
-2.16388e-08
-4.0164e-08
-6.12132e-08
-7.45979e-08
-8.29692e-08
-8.28954e-08
-6.93386e-08
-5.22168e-08
-1.20029e-08
1.49749e-09
-2.16396e-08
-4.01584e-08
-6.12082e-08
-7.45964e-08
-8.29702e-08
-8.28971e-08
-6.93383e-08
-5.22154e-08
-1.20035e-08
1.44143e-09
-2.1647e-08
-4.01573e-08
-6.12059e-08
-7.45955e-08
-8.29702e-08
-8.28965e-08
-6.93355e-08
-5.22025e-08
-1.19985e-08
1.37582e-09
-2.16609e-08
-4.01607e-08
-6.12063e-08
-7.45955e-08
-8.29691e-08
-8.28935e-08
-6.93303e-08
-5.21781e-08
-1.19877e-08
1.30098e-09
-2.16811e-08
-4.01688e-08
-6.12094e-08
-7.45963e-08
-8.2967e-08
-8.28882e-08
-6.93226e-08
-5.21425e-08
-1.19713e-08
1.21735e-09
-2.17077e-08
-4.01816e-08
-6.12156e-08
-7.45982e-08
-8.2964e-08
-8.28805e-08
-6.93121e-08
-5.20959e-08
-1.19492e-08
1.12551e-09
-2.17404e-08
-4.01993e-08
-6.1225e-08
-7.46012e-08
-8.29601e-08
-8.28704e-08
-6.92987e-08
-5.20386e-08
-1.19213e-08
1.02613e-09
-2.1779e-08
-4.02219e-08
-6.12378e-08
-7.46057e-08
-8.29554e-08
-8.28577e-08
-6.92823e-08
-5.19711e-08
-1.18877e-08
9.19997e-10
-2.18235e-08
-4.02498e-08
-6.12543e-08
-7.46119e-08
-8.29501e-08
-8.28425e-08
-6.92627e-08
-5.18938e-08
-1.18481e-08
8.07991e-10
-2.18737e-08
-4.02829e-08
-6.12748e-08
-7.462e-08
-8.29443e-08
-8.28248e-08
-6.92397e-08
-5.1807e-08
-1.18026e-08
6.91096e-10
-2.19292e-08
-4.03216e-08
-6.12998e-08
-7.46304e-08
-8.29382e-08
-8.28046e-08
-6.92131e-08
-5.17112e-08
-1.17508e-08
5.70369e-10
-2.199e-08
-4.03659e-08
-6.13294e-08
-7.46434e-08
-8.29321e-08
-8.27818e-08
-6.91827e-08
-5.16069e-08
-1.16927e-08
4.46653e-10
-2.20557e-08
-4.04162e-08
-6.1364e-08
-7.46593e-08
-8.2926e-08
-8.27565e-08
-6.91485e-08
-5.14944e-08
-1.1628e-08
3.20907e-10
-2.2126e-08
-4.04724e-08
-6.14041e-08
-7.46786e-08
-8.29204e-08
-8.27288e-08
-6.91102e-08
-5.13741e-08
-1.15565e-08
1.94699e-10
-2.22008e-08
-4.05348e-08
-6.14498e-08
-7.47015e-08
-8.29155e-08
-8.26989e-08
-6.90677e-08
-5.12464e-08
-1.14778e-08
8.27712e-11
-2.22797e-08
-4.06035e-08
-6.15016e-08
-7.47285e-08
-8.29116e-08
-8.26668e-08
-6.90211e-08
-5.11116e-08
-1.13918e-08
4.3312e-15
-2.23622e-08
-4.06785e-08
-6.15598e-08
-7.476e-08
-8.2909e-08
-8.26327e-08
-6.89702e-08
-5.09699e-08
-1.12981e-08
-5.21586e-11
-2.24478e-08
-4.07599e-08
-6.16245e-08
-7.47963e-08
-8.29082e-08
-8.2597e-08
-6.89152e-08
-5.08215e-08
-1.11963e-08
-7.36471e-11
-2.25362e-08
-4.08477e-08
-6.16961e-08
-7.48378e-08
-8.29095e-08
-8.25598e-08
-6.8856e-08
-5.06667e-08
-1.10862e-08
-7.77475e-11
-2.26272e-08
-4.09417e-08
-6.17746e-08
-7.48849e-08
-8.29134e-08
-8.25215e-08
-6.87927e-08
-5.05056e-08
-1.09675e-08
-7.74952e-11
-2.27205e-08
-4.10418e-08
-6.18604e-08
-7.4938e-08
-8.29202e-08
-8.24824e-08
-6.87257e-08
-5.03384e-08
-1.08399e-08
-7.28093e-11
-2.28155e-08
-4.11478e-08
-6.19534e-08
-7.49973e-08
-8.29304e-08
-8.2443e-08
-6.86549e-08
-5.01651e-08
-1.07032e-08
-6.30352e-11
-2.29117e-08
-4.12595e-08
-6.20537e-08
-7.50631e-08
-8.29445e-08
-8.24037e-08
-6.85808e-08
-4.99861e-08
-1.05571e-08
-4.74463e-11
-2.30087e-08
-4.13765e-08
-6.21612e-08
-7.51358e-08
-8.29629e-08
-8.2365e-08
-6.85037e-08
-4.98013e-08
-1.04016e-08
-2.55877e-11
-2.31057e-08
-4.14985e-08
-6.22759e-08
-7.52155e-08
-8.2986e-08
-8.23274e-08
-6.84238e-08
-4.9611e-08
-1.02364e-08
2.99788e-12
-2.32023e-08
-4.1625e-08
-6.23976e-08
-7.53024e-08
-8.30144e-08
-8.22913e-08
-6.83417e-08
-4.94155e-08
-1.00616e-08
3.87826e-11
-2.32977e-08
-4.17554e-08
-6.25262e-08
-7.53967e-08
-8.30484e-08
-8.22575e-08
-6.82578e-08
-4.9215e-08
-9.87727e-09
8.22372e-11
-2.33913e-08
-4.18892e-08
-6.26613e-08
-7.54985e-08
-8.30885e-08
-8.22264e-08
-6.81726e-08
-4.90099e-08
-9.68339e-09
1.33815e-10
-2.34824e-08
-4.20258e-08
-6.28026e-08
-7.56079e-08
-8.31351e-08
-8.21987e-08
-6.80866e-08
-4.88005e-08
-9.4802e-09
1.93945e-10
-2.35702e-08
-4.21643e-08
-6.29497e-08
-7.57248e-08
-8.31887e-08
-8.2175e-08
-6.80004e-08
-4.85874e-08
-9.26795e-09
2.63033e-10
-2.3654e-08
-4.23042e-08
-6.31021e-08
-7.58493e-08
-8.32494e-08
-8.21558e-08
-6.79147e-08
-4.83711e-08
-9.04699e-09
3.4146e-10
-2.37329e-08
-4.24445e-08
-6.32594e-08
-7.59812e-08
-8.33178e-08
-8.21418e-08
-6.783e-08
-4.81522e-08
-8.81773e-09
4.2958e-10
-2.38063e-08
-4.25845e-08
-6.34209e-08
-7.61203e-08
-8.3394e-08
-8.21336e-08
-6.77471e-08
-4.79314e-08
-8.58069e-09
5.2772e-10
-2.38733e-08
-4.27232e-08
-6.35859e-08
-7.62666e-08
-8.34783e-08
-8.21317e-08
-6.76666e-08
-4.77096e-08
-8.33646e-09
6.36174e-10
-2.3933e-08
-4.28597e-08
-6.37539e-08
-7.64196e-08
-8.3571e-08
-8.21368e-08
-6.75891e-08
-4.74876e-08
-8.08571e-09
7.55205e-10
-2.39848e-08
-4.29931e-08
-6.39241e-08
-7.65792e-08
-8.36721e-08
-8.21492e-08
-6.75155e-08
-4.72664e-08
-7.82919e-09
8.85034e-10
-2.40278e-08
-4.31226e-08
-6.40957e-08
-7.67448e-08
-8.37818e-08
-8.21697e-08
-6.74464e-08
-4.7047e-08
-7.56772e-09
1.02584e-09
-2.40613e-08
-4.3247e-08
-6.42679e-08
-7.69161e-08
-8.39001e-08
-8.21986e-08
-6.73825e-08
-4.68304e-08
-7.30221e-09
1.17777e-09
-2.40846e-08
-4.33654e-08
-6.44399e-08
-7.70926e-08
-8.4027e-08
-8.22363e-08
-6.73245e-08
-4.66178e-08
-7.0336e-09
1.34089e-09
-2.40969e-08
-4.3477e-08
-6.46107e-08
-7.72737e-08
-8.41624e-08
-8.22832e-08
-6.72731e-08
-4.64104e-08
-6.76294e-09
1.51524e-09
-2.40978e-08
-4.35808e-08
-6.47795e-08
-7.74588e-08
-8.43062e-08
-8.23398e-08
-6.72289e-08
-4.62094e-08
-6.49128e-09
1.70078e-09
-2.40865e-08
-4.36758e-08
-6.49453e-08
-7.76473e-08
-8.44581e-08
-8.24061e-08
-6.71926e-08
-4.6016e-08
-6.21976e-09
1.89742e-09
-2.40625e-08
-4.37612e-08
-6.51073e-08
-7.78384e-08
-8.46178e-08
-8.24824e-08
-6.71649e-08
-4.58315e-08
-5.94954e-09
2.10499e-09
-2.40255e-08
-4.38362e-08
-6.52645e-08
-7.80314e-08
-8.4785e-08
-8.25689e-08
-6.71462e-08
-4.56572e-08
-5.68182e-09
2.32324e-09
-2.3975e-08
-4.39001e-08
-6.54161e-08
-7.82255e-08
-8.49592e-08
-8.26656e-08
-6.71371e-08
-4.54943e-08
-5.41783e-09
2.55188e-09
-2.39107e-08
-4.3952e-08
-6.5561e-08
-7.84199e-08
-8.514e-08
-8.27725e-08
-6.71381e-08
-4.5344e-08
-5.15881e-09
2.79052e-09
-2.38325e-08
-4.39913e-08
-6.56984e-08
-7.86137e-08
-8.53267e-08
-8.28895e-08
-6.71496e-08
-4.52076e-08
-4.90601e-09
3.03868e-09
-2.37402e-08
-4.40175e-08
-6.58275e-08
-7.8806e-08
-8.55188e-08
-8.30164e-08
-6.7172e-08
-4.50862e-08
-4.66067e-09
3.29583e-09
-2.36338e-08
-4.40301e-08
-6.59474e-08
-7.89959e-08
-8.57154e-08
-8.3153e-08
-6.72057e-08
-4.49809e-08
-4.42403e-09
3.56134e-09
-2.35133e-08
-4.40286e-08
-6.60574e-08
-7.91825e-08
-8.59159e-08
-8.3299e-08
-6.72507e-08
-4.48928e-08
-4.1973e-09
3.83453e-09
-2.3379e-08
-4.40128e-08
-6.61568e-08
-7.93648e-08
-8.61195e-08
-8.34539e-08
-6.73074e-08
-4.48227e-08
-3.98164e-09
4.11462e-09
-2.32311e-08
-4.39824e-08
-6.62448e-08
-7.9542e-08
-8.63251e-08
-8.36173e-08
-6.73757e-08
-4.47717e-08
-3.77819e-09
4.40078e-09
-2.307e-08
-4.39373e-08
-6.63209e-08
-7.97131e-08
-8.6532e-08
-8.37885e-08
-6.74557e-08
-4.47403e-08
-3.588e-09
4.69209e-09
-2.28963e-08
-4.38776e-08
-6.63846e-08
-7.98772e-08
-8.67391e-08
-8.39669e-08
-6.75473e-08
-4.47293e-08
-3.41208e-09
4.98759e-09
-2.27104e-08
-4.38033e-08
-6.64355e-08
-8.00334e-08
-8.69455e-08
-8.41517e-08
-6.76503e-08
-4.47391e-08
-3.25132e-09
5.28626e-09
-2.25132e-08
-4.37148e-08
-6.64732e-08
-8.0181e-08
-8.71502e-08
-8.43422e-08
-6.77645e-08
-4.47701e-08
-3.10654e-09
5.58703e-09
-2.23053e-08
-4.36124e-08
-6.64976e-08
-8.03191e-08
-8.7352e-08
-8.45375e-08
-6.78895e-08
-4.48225e-08
-2.97843e-09
5.88877e-09
-2.20878e-08
-4.34966e-08
-6.65084e-08
-8.04471e-08
-8.755e-08
-8.47367e-08
-6.80248e-08
-4.48963e-08
-2.86756e-09
6.19035e-09
-2.18616e-08
-4.3368e-08
-6.65058e-08
-8.05642e-08
-8.77432e-08
-8.49387e-08
-6.817e-08
-4.49913e-08
-2.77435e-09
6.4906e-09
-2.16278e-08
-4.32274e-08
-6.64898e-08
-8.067e-08
-8.79306e-08
-8.51425e-08
-6.83242e-08
-4.51073e-08
-2.69909e-09
6.78831e-09
-2.13877e-08
-4.30756e-08
-6.64608e-08
-8.0764e-08
-8.81111e-08
-8.53471e-08
-6.84869e-08
-4.52436e-08
-2.64189e-09
7.0823e-09
-2.11423e-08
-4.29138e-08
-6.6419e-08
-8.08457e-08
-8.82839e-08
-8.55514e-08
-6.86572e-08
-4.53995e-08
-2.60268e-09
7.37138e-09
-2.08932e-08
-4.2743e-08
-6.6365e-08
-8.09151e-08
-8.84481e-08
-8.57543e-08
-6.88341e-08
-4.55741e-08
-2.5812e-09
7.65438e-09
-2.06416e-08
-4.25644e-08
-6.62995e-08
-8.09718e-08
-8.86028e-08
-8.59545e-08
-6.90167e-08
-4.57661e-08
-2.57702e-09
7.93015e-09
-2.03891e-08
-4.23795e-08
-6.62233e-08
-8.1016e-08
-8.87475e-08
-8.61511e-08
-6.92038e-08
-4.59742e-08
-2.58946e-09
8.19759e-09
-2.01372e-08
-4.21897e-08
-6.61374e-08
-8.10478e-08
-8.88814e-08
-8.6343e-08
-6.93942e-08
-4.61967e-08
-2.61767e-09
8.45564e-09
-1.98873e-08
-4.19967e-08
-6.60428e-08
-8.10674e-08
-8.90041e-08
-8.65289e-08
-6.95868e-08
-4.64317e-08
-2.66055e-09
8.70331e-09
-1.96411e-08
-4.18019e-08
-6.59408e-08
-8.10754e-08
-8.91152e-08
-8.6708e-08
-6.97801e-08
-4.66773e-08
-2.7168e-09
8.93969e-09
-1.94001e-08
-4.16073e-08
-6.58326e-08
-8.10723e-08
-8.92144e-08
-8.68792e-08
-6.99729e-08
-4.69311e-08
-2.78488e-09
9.16396e-09
-1.91661e-08
-4.14146e-08
-6.57198e-08
-8.10589e-08
-8.93016e-08
-8.70416e-08
-7.01636e-08
-4.71906e-08
-2.86306e-09
9.37541e-09
-1.89404e-08
-4.12257e-08
-6.56039e-08
-8.10361e-08
-8.93769e-08
-8.71945e-08
-7.03508e-08
-4.74532e-08
-2.94938e-09
9.57344e-09
-1.87249e-08
-4.10425e-08
-6.54866e-08
-8.10049e-08
-8.94404e-08
-8.73369e-08
-7.05331e-08
-4.77161e-08
-3.04171e-09
9.7576e-09
-1.8521e-08
-4.08669e-08
-6.53696e-08
-8.09665e-08
-8.94925e-08
-8.74684e-08
-7.07088e-08
-4.79763e-08
-3.13774e-09
9.92754e-09
-1.83304e-08
-4.07008e-08
-6.52547e-08
-8.09222e-08
-8.95337e-08
-8.75882e-08
-7.08765e-08
-4.82309e-08
-3.23501e-09
1.00831e-08
-1.81545e-08
-4.05462e-08
-6.51436e-08
-8.08734e-08
-8.95646e-08
-8.76961e-08
-7.10347e-08
-4.84768e-08
-3.33095e-09
1.02242e-08
-1.7995e-08
-4.04049e-08
-6.50382e-08
-8.08216e-08
-8.95859e-08
-8.77916e-08
-7.1182e-08
-4.87109e-08
-3.42294e-09
1.0351e-08
-1.78532e-08
-4.02787e-08
-6.49401e-08
-8.07681e-08
-8.95985e-08
-8.78744e-08
-7.13168e-08
-4.89304e-08
-3.50832e-09
1.04636e-08
-1.77309e-08
-4.01695e-08
-6.4851e-08
-8.07145e-08
-8.96031e-08
-8.79445e-08
-7.1438e-08
-4.91325e-08
-3.58446e-09
1.05622e-08
-1.76295e-08
-4.00789e-08
-6.47724e-08
-8.0662e-08
-8.96005e-08
-8.80015e-08
-7.1544e-08
-4.93143e-08
-3.64886e-09
1.06471e-08
-1.75509e-08
-4.00085e-08
-6.47055e-08
-8.06117e-08
-8.95916e-08
-8.80454e-08
-7.16339e-08
-4.94735e-08
-3.69917e-09
1.0718e-08
-1.74967e-08
-3.99598e-08
-6.46514e-08
-8.05647e-08
-8.95768e-08
-8.80759e-08
-7.17064e-08
-4.96077e-08
-3.73322e-09
1.07745e-08
-1.74693e-08
-3.99344e-08
-6.4611e-08
-8.05216e-08
-8.95565e-08
-8.80926e-08
-7.17603e-08
-4.97146e-08
-3.74881e-09
1.08143e-08
-1.74717e-08
-3.9934e-08
-6.45853e-08
-8.0483e-08
-8.95305e-08
-8.80945e-08
-7.1794e-08
-4.97906e-08
-3.74377e-09
1.08332e-08
-1.75071e-08
-3.99603e-08
-6.45753e-08
-8.04495e-08
-8.94987e-08
-8.80803e-08
-7.18053e-08
-4.98304e-08
-3.71869e-09
1.08276e-08
-1.75731e-08
-4.00104e-08
-6.45811e-08
-8.04231e-08
-8.94632e-08
-8.80513e-08
-7.17941e-08
-4.98297e-08
-3.68486e-09
1.08069e-08
-1.7643e-08
-4.0065e-08
-6.4597e-08
-8.04084e-08
-8.94341e-08
-8.80199e-08
-7.17711e-08
-4.98003e-08
-3.04066e-09
1.23306e-08
-1.87231e-08
-4.22425e-08
-6.63226e-08
-8.08197e-08
-8.85091e-08
-8.63066e-08
-7.03235e-08
-4.99771e-08
-3.09377e-09
1.23406e-08
-1.86466e-08
-4.21771e-08
-6.63027e-08
-8.08357e-08
-8.85376e-08
-8.63326e-08
-7.03384e-08
-5.00105e-08
-3.14711e-09
1.23232e-08
-1.85763e-08
-4.21113e-08
-6.62854e-08
-8.08567e-08
-8.85677e-08
-8.63541e-08
-7.03425e-08
-5.00165e-08
-3.18391e-09
1.22715e-08
-1.85416e-08
-4.20667e-08
-6.62759e-08
-8.08765e-08
-8.85893e-08
-8.63609e-08
-7.03284e-08
-4.99829e-08
-3.20128e-09
1.21922e-08
-1.85449e-08
-4.20475e-08
-6.62754e-08
-8.0894e-08
-8.8601e-08
-8.63524e-08
-7.02968e-08
-4.99142e-08
-3.20057e-09
1.2092e-08
-1.85818e-08
-4.20527e-08
-6.6284e-08
-8.09095e-08
-8.86036e-08
-8.63301e-08
-7.02495e-08
-4.9816e-08
-3.18373e-09
1.19744e-08
-1.86486e-08
-4.20804e-08
-6.63016e-08
-8.09234e-08
-8.85978e-08
-8.62952e-08
-7.01879e-08
-4.96923e-08
-3.15281e-09
1.18411e-08
-1.87421e-08
-4.21291e-08
-6.63279e-08
-8.09358e-08
-8.85839e-08
-8.62484e-08
-7.01131e-08
-4.95454e-08
-3.11001e-09
1.16928e-08
-1.88599e-08
-4.2197e-08
-6.63622e-08
-8.09464e-08
-8.85619e-08
-8.61901e-08
-7.00261e-08
-4.93777e-08
-3.0577e-09
1.15301e-08
-1.89993e-08
-4.22824e-08
-6.64037e-08
-8.09548e-08
-8.85317e-08
-8.61208e-08
-6.9928e-08
-4.91915e-08
-2.99831e-09
1.13532e-08
-1.91583e-08
-4.23831e-08
-6.64513e-08
-8.09605e-08
-8.84931e-08
-8.6041e-08
-6.98199e-08
-4.89893e-08
-2.93426e-09
1.11625e-08
-1.93345e-08
-4.24973e-08
-6.65037e-08
-8.09625e-08
-8.84458e-08
-8.5951e-08
-6.97031e-08
-4.87737e-08
-2.8679e-09
1.09584e-08
-1.95259e-08
-4.2623e-08
-6.65596e-08
-8.09602e-08
-8.83897e-08
-8.58515e-08
-6.95788e-08
-4.85472e-08
-2.80154e-09
1.07412e-08
-1.97305e-08
-4.27582e-08
-6.66177e-08
-8.09528e-08
-8.83244e-08
-8.5743e-08
-6.94483e-08
-4.83125e-08
-2.73733e-09
1.05115e-08
-1.99464e-08
-4.2901e-08
-6.66765e-08
-8.09393e-08
-8.82499e-08
-8.5626e-08
-6.9313e-08
-4.80724e-08
-2.67732e-09
1.02699e-08
-2.01716e-08
-4.30494e-08
-6.67347e-08
-8.09193e-08
-8.81661e-08
-8.55012e-08
-6.91741e-08
-4.78293e-08
-2.62337e-09
1.00172e-08
-2.04044e-08
-4.32015e-08
-6.67909e-08
-8.08918e-08
-8.80731e-08
-8.53694e-08
-6.90328e-08
-4.75859e-08
-2.57723e-09
9.7541e-09
-2.06429e-08
-4.33555e-08
-6.68439e-08
-8.08564e-08
-8.7971e-08
-8.52313e-08
-6.88905e-08
-4.73447e-08
-2.54044e-09
9.4816e-09
-2.08853e-08
-4.35096e-08
-6.68923e-08
-8.08127e-08
-8.786e-08
-8.50877e-08
-6.87483e-08
-4.7108e-08
-2.51438e-09
9.20069e-09
-2.113e-08
-4.36622e-08
-6.69352e-08
-8.07601e-08
-8.77404e-08
-8.49395e-08
-6.86073e-08
-4.68779e-08
-2.50023e-09
8.91241e-09
-2.13754e-08
-4.38118e-08
-6.69714e-08
-8.06985e-08
-8.76127e-08
-8.47876e-08
-6.84686e-08
-4.66567e-08
-2.49902e-09
8.61788e-09
-2.16198e-08
-4.39567e-08
-6.70001e-08
-8.06277e-08
-8.74774e-08
-8.46327e-08
-6.83332e-08
-4.6446e-08
-2.51157e-09
8.31823e-09
-2.18617e-08
-4.40955e-08
-6.70203e-08
-8.05476e-08
-8.7335e-08
-8.44758e-08
-6.8202e-08
-4.62477e-08
-2.53854e-09
8.01463e-09
-2.20997e-08
-4.42271e-08
-6.70315e-08
-8.04582e-08
-8.71862e-08
-8.43179e-08
-6.80758e-08
-4.60632e-08
-2.58043e-09
7.70825e-09
-2.23324e-08
-4.43503e-08
-6.70331e-08
-8.03598e-08
-8.70315e-08
-8.41597e-08
-6.79555e-08
-4.58939e-08
-2.63755e-09
7.40028e-09
-2.25585e-08
-4.44639e-08
-6.70245e-08
-8.02526e-08
-8.68719e-08
-8.40022e-08
-6.78418e-08
-4.57408e-08
-2.71005e-09
7.09188e-09
-2.2777e-08
-4.45671e-08
-6.70054e-08
-8.01368e-08
-8.6708e-08
-8.38462e-08
-6.77352e-08
-4.56049e-08
-2.79797e-09
6.78423e-09
-2.29866e-08
-4.4659e-08
-6.69756e-08
-8.00128e-08
-8.65406e-08
-8.36926e-08
-6.76363e-08
-4.5487e-08
-2.90116e-09
6.47845e-09
-2.31863e-08
-4.4739e-08
-6.69349e-08
-7.98812e-08
-8.63705e-08
-8.3542e-08
-6.75455e-08
-4.53877e-08
-3.01936e-09
6.17564e-09
-2.33754e-08
-4.48064e-08
-6.68834e-08
-7.97424e-08
-8.61985e-08
-8.33953e-08
-6.74633e-08
-4.53073e-08
-3.15219e-09
5.87688e-09
-2.35529e-08
-4.48609e-08
-6.6821e-08
-7.95971e-08
-8.60255e-08
-8.32532e-08
-6.73899e-08
-4.52461e-08
-3.29917e-09
5.58317e-09
-2.37181e-08
-4.49021e-08
-6.6748e-08
-7.94457e-08
-8.58522e-08
-8.31162e-08
-6.73255e-08
-4.52042e-08
-3.45969e-09
5.29549e-09
-2.38705e-08
-4.49299e-08
-6.66645e-08
-7.9289e-08
-8.56794e-08
-8.29851e-08
-6.72704e-08
-4.51815e-08
-3.63306e-09
5.01473e-09
-2.40096e-08
-4.4944e-08
-6.6571e-08
-7.91277e-08
-8.55079e-08
-8.28602e-08
-6.72246e-08
-4.51778e-08
-3.81854e-09
4.74175e-09
-2.4135e-08
-4.49445e-08
-6.64678e-08
-7.89624e-08
-8.53384e-08
-8.27421e-08
-6.71881e-08
-4.51928e-08
-4.01528e-09
4.47733e-09
-2.42464e-08
-4.49315e-08
-6.63555e-08
-7.87939e-08
-8.51716e-08
-8.26312e-08
-6.71608e-08
-4.5226e-08
-4.2224e-09
4.22218e-09
-2.43436e-08
-4.49053e-08
-6.62345e-08
-7.86228e-08
-8.50082e-08
-8.25278e-08
-6.71427e-08
-4.52769e-08
-4.43895e-09
3.97693e-09
-2.44266e-08
-4.48661e-08
-6.61054e-08
-7.845e-08
-8.48487e-08
-8.24322e-08
-6.71336e-08
-4.53448e-08
-4.66396e-09
3.74215e-09
-2.44953e-08
-4.48144e-08
-6.59689e-08
-7.8276e-08
-8.46938e-08
-8.23447e-08
-6.71331e-08
-4.54289e-08
-4.89641e-09
3.51833e-09
-2.45498e-08
-4.47505e-08
-6.58256e-08
-7.81017e-08
-8.45439e-08
-8.22653e-08
-6.71412e-08
-4.55284e-08
-5.13529e-09
3.30589e-09
-2.45903e-08
-4.46751e-08
-6.56763e-08
-7.79276e-08
-8.43995e-08
-8.21942e-08
-6.71574e-08
-4.56424e-08
-5.37955e-09
3.10518e-09
-2.46172e-08
-4.45887e-08
-6.55216e-08
-7.77545e-08
-8.42609e-08
-8.21314e-08
-6.71813e-08
-4.57699e-08
-5.62814e-09
2.91645e-09
-2.46307e-08
-4.4492e-08
-6.53624e-08
-7.7583e-08
-8.41287e-08
-8.20769e-08
-6.72126e-08
-4.591e-08
-5.88003e-09
2.7399e-09
-2.46312e-08
-4.43858e-08
-6.51994e-08
-7.74137e-08
-8.4003e-08
-8.20305e-08
-6.72509e-08
-4.60616e-08
-6.1342e-09
2.57567e-09
-2.46194e-08
-4.42707e-08
-6.50333e-08
-7.72471e-08
-8.38841e-08
-8.19922e-08
-6.72955e-08
-4.62236e-08
-6.38963e-09
2.42382e-09
-2.45957e-08
-4.41477e-08
-6.48649e-08
-7.70838e-08
-8.37721e-08
-8.19618e-08
-6.73461e-08
-4.63949e-08
-6.64535e-09
2.28435e-09
-2.45607e-08
-4.40175e-08
-6.4695e-08
-7.69242e-08
-8.36673e-08
-8.19389e-08
-6.74021e-08
-4.65746e-08
-6.9004e-09
2.1572e-09
-2.45151e-08
-4.3881e-08
-6.45244e-08
-7.67689e-08
-8.35696e-08
-8.19234e-08
-6.7463e-08
-4.67613e-08
-7.15387e-09
2.04226e-09
-2.44596e-08
-4.3739e-08
-6.43536e-08
-7.66182e-08
-8.34791e-08
-8.19148e-08
-6.75282e-08
-4.69542e-08
-7.40489e-09
1.93938e-09
-2.4395e-08
-4.35925e-08
-6.41836e-08
-7.64726e-08
-8.33958e-08
-8.19129e-08
-6.75972e-08
-4.71521e-08
-7.65265e-09
1.84834e-09
-2.4322e-08
-4.34424e-08
-6.40149e-08
-7.63322e-08
-8.33196e-08
-8.19173e-08
-6.76694e-08
-4.73541e-08
-7.89636e-09
1.7689e-09
-2.42413e-08
-4.32894e-08
-6.38483e-08
-7.61975e-08
-8.32504e-08
-8.19275e-08
-6.77443e-08
-4.7559e-08
-8.13533e-09
1.70079e-09
-2.41539e-08
-4.31345e-08
-6.36842e-08
-7.60686e-08
-8.3188e-08
-8.1943e-08
-6.78212e-08
-4.77661e-08
-8.36889e-09
1.64368e-09
-2.40605e-08
-4.29785e-08
-6.35234e-08
-7.59458e-08
-8.31323e-08
-8.19635e-08
-6.78997e-08
-4.79744e-08
-8.59646e-09
1.59726e-09
-2.39619e-08
-4.28223e-08
-6.33663e-08
-7.58292e-08
-8.3083e-08
-8.19885e-08
-6.79792e-08
-4.8183e-08
-8.81751e-09
1.56113e-09
-2.38589e-08
-4.26666e-08
-6.32135e-08
-7.57188e-08
-8.30399e-08
-8.20174e-08
-6.80592e-08
-4.83913e-08
-9.03158e-09
1.53494e-09
-2.37523e-08
-4.25121e-08
-6.30655e-08
-7.56148e-08
-8.30026e-08
-8.20497e-08
-6.81392e-08
-4.85984e-08
-9.23828e-09
1.51825e-09
-2.36429e-08
-4.23597e-08
-6.29225e-08
-7.55172e-08
-8.29709e-08
-8.20851e-08