/*--------------------------------*- C++ -*----------------------------------*\
| =========                 |                                                 |
| \\      /  F ield         | OpenFOAM: The Open Source CFD Toolbox           |
|  \\    /   O peration     | Version:  2.3.0                                 |
|   \\  /    A nd           | Web:      www.OpenFOAM.org                      |
|    \\/     M anipulation  |                                                 |
\*---------------------------------------------------------------------------*/
FoamFile
{
    version     2.0;
    format      ascii;
    class       surfaceScalarField;
    location    "400";
    object      phi;
}
// * * * * * * * * * * * * * * * * * * * * * * * * * * * * * * * * * * * * * //

dimensions      [0 3 -1 0 0 0 0];

internalField   nonuniform List<scalar> 
47500
(
0.00637586
-5.37299e-09
-9.31898e-13
0.00637585
4.75492e-09
1.63102e-12
0.00637584
8.82342e-09
2.37993e-12
0.00637584
6.84407e-09
-1.79405e-12
0.00637583
2.43984e-09
-4.27292e-12
0.00637584
-1.09866e-09
-1.17867e-12
0.00637584
-2.85779e-09
3.05776e-12
0.00637584
-3.35519e-09
2.75269e-12
0.00637585
-3.03268e-09
3.76454e-13
-7.14328e-09
-6.20438e-13
0.00754152
-1.10466e-08
-9.48639e-13
0.00754152
8.83418e-09
1.80352e-12
0.00754151
1.79028e-08
2.32191e-12
0.0075415
1.42285e-08
-2.25819e-12
0.0075415
5.03218e-09
-5.04995e-12
0.0075415
-2.40538e-09
-1.81706e-12
0.0075415
-5.94295e-09
2.93031e-12
0.00754151
-6.7687e-09
3.19483e-12
0.00754151
-5.94527e-09
9.9141e-13
-1.38855e-08
-4.96524e-13
0.00815795
-1.6355e-08
-9.50145e-13
0.00815795
1.22426e-08
1.73631e-12
0.00815794
2.6453e-08
2.07124e-12
0.00815793
2.12603e-08
-2.57903e-12
0.00815793
7.36125e-09
-5.46537e-12
0.00815793
-3.84571e-09
-2.25219e-12
0.00815794
-8.96115e-09
2.64874e-12
0.00815794
-9.92028e-09
3.36218e-12
0.00815794
-8.49687e-09
1.42511e-12
-1.97324e-08
-3.44211e-13
0.00857236
-2.11194e-08
-9.56822e-13
0.00857236
1.51071e-08
1.59294e-12
0.00857235
3.42224e-08
1.79211e-12
0.00857235
2.76937e-08
-2.82164e-12
0.00857235
9.3744e-09
-5.72599e-12
0.00857235
-5.34158e-09
-2.56627e-12
0.00857235
-1.18105e-08
2.38241e-12
0.00857235
-1.27324e-08
3.43586e-12
0.00857235
-1.0664e-08
1.74684e-12
-2.47208e-08
-2.04699e-13
0.00888331
-2.52674e-08
-9.69877e-13
0.00888331
1.75966e-08
1.4226e-12
0.00888331
4.11625e-08
1.52688e-12
0.0088833
3.34238e-08
-3.00282e-12
0.0088833
1.10375e-08
-5.89267e-12
0.0088833
-6.8692e-09
-2.79755e-12
0.0088833
-1.44643e-08
2.15662e-12
0.0088833
-1.51982e-08
3.46747e-12
0.00888331
-1.24631e-08
1.98925e-12
-2.89451e-08
-8.46743e-14
0.00913221
-2.87733e-08
-9.87673e-13
0.00913221
1.98439e-08
1.24784e-12
0.0091322
4.72919e-08
1.2901e-12
0.0091322
3.84106e-08
-3.13284e-12
0.0091322
1.23294e-08
-5.9943e-12
0.0091322
-8.42666e-09
-2.969e-12
0.0091322
-1.69235e-08
1.9702e-12
0.0091322
-1.7332e-08
3.47686e-12
0.00913221
-1.39166e-08
2.17207e-12
-3.24856e-08
1.63646e-14
0.00933997
-3.16343e-08
-1.00841e-12
0.00933997
2.19424e-08
1.08038e-12
0.00933997
5.26516e-08
1.08671e-12
0.00933996
4.26472e-08
-3.21924e-12
0.00933996
1.32385e-08
-6.04745e-12
0.00933996
-1.00198e-08
-3.09547e-12
0.00933996
-1.91992e-08
1.81689e-12
0.00933997
-1.91539e-08
3.47288e-12
0.00933997
-1.50455e-08
2.30871e-12
-3.54032e-08
9.89835e-14
0.00951853
-3.38609e-08
-1.03068e-12
0.00951853
2.39537e-08
9.26205e-13
0.00951852
5.72877e-08
9.17496e-13
0.00951852
4.61449e-08
-3.26794e-12
0.00951852
1.37615e-08
-6.06275e-12
0.00951852
-1.16556e-08
-3.18715e-12
0.00951852
-2.13043e-08
1.69026e-12
0.00951852
-2.06841e-08
3.45985e-12
0.00951852
-1.58694e-08
2.40883e-12
-3.77433e-08
1.64577e-13
0.00967529
-3.54715e-08
-1.05348e-12
0.00967529
2.59158e-08
7.88108e-13
0.00967528
6.12457e-08
7.81322e-13
0.00967528
4.89255e-08
-3.28381e-12
0.00967528
1.39015e-08
-6.04758e-12
0.00967528
-1.3339e-08
-3.2513e-12
0.00967528
-2.32509e-08
1.58476e-12
0.00967528
-2.19415e-08
3.44001e-12
0.00967528
-1.64065e-08
2.47957e-12
-3.95421e-08
2.16328e-13
0.00981516
-3.64905e-08
-1.07608e-12
0.00981516
2.78496e-08
6.67042e-13
0.00981516
6.45677e-08
6.76115e-13
0.00981516
5.10173e-08
-3.27098e-12
0.00981516
1.3668e-08
-6.00737e-12
0.00981516
-1.50718e-08
-3.29337e-12
0.00981516
-2.50484e-08
1.49583e-12
0.00981516
-2.29429e-08
3.4145e-12
0.00981516
-1.66745e-08
2.52634e-12
-4.08302e-08
2.56316e-13
0.00994157
-3.69465e-08
-1.09794e-12
0.00994157
2.9764e-08
5.6292e-13
0.00994156
6.72929e-08
5.994e-13
0.00994156
5.24533e-08
-3.23301e-12
0.00994156
1.30754e-08
-5.94635e-12
0.00994156
-1.68524e-08
-3.31751e-12
0.00994157
-2.67039e-08
1.41978e-12
0.00994157
-2.37036e-08
3.38396e-12
0.00994157
-1.66913e-08
2.55331e-12
-4.1636e-08
2.85627e-13
0.010057
-3.68715e-08
-1.11865e-12
0.010057
3.16599e-08
4.75074e-13
0.010057
6.94577e-08
5.4857e-13
0.010057
5.32692e-08
-3.17305e-12
0.010057
1.21422e-08
-5.86785e-12
0.010057
-1.86758e-08
-3.327e-12
0.010057
-2.82225e-08
1.35364e-12
0.010057
-2.42375e-08
3.34871e-12
0.010057
-1.64751e-08
2.56373e-12
-4.1987e-08
3.05956e-13
0.0101632
-3.63e-08
-1.13788e-12
0.0101632
3.3533e-08
4.02539e-13
0.0101632
7.10962e-08
5.21043e-13
0.0101632
5.3503e-08
-3.09389e-12
0.0101632
1.08907e-08
-5.77468e-12
0.0101632
-2.05345e-08
-3.32451e-12
0.0101632
-2.96072e-08
1.29504e-12
0.0101632
-2.45579e-08
3.30895e-12
0.0101632
-1.60446e-08
2.56022e-12
-4.19112e-08
3.18343e-13
0.0102617
-3.52683e-08
-1.15539e-12
0.0102617
3.53757e-08
3.4422e-13
0.0102617
7.22412e-08
5.14343e-13
0.0102617
5.31943e-08
-2.99805e-12
0.0102617
9.3458e-09
-5.66918e-12
0.0102617
-2.24189e-08
-3.31219e-12
0.0102617
-3.08601e-08
1.24204e-12
0.0102617
-2.46775e-08
3.2648e-12
0.0102617
-1.54192e-08
2.54485e-12
-4.14376e-08
3.24023e-13
0.0103535
-3.38142e-08
-1.17094e-12
0.0103535
3.71787e-08
2.98988e-13
0.0103535
7.29244e-08
5.26148e-13
0.0103535
5.23837e-08
-2.88779e-12
0.0103535
7.53438e-09
-5.55337e-12
0.0103535
-2.43177e-08
-3.29189e-12
0.0103535
-3.19825e-08
1.1931e-12
0.0103535
-2.4609e-08
3.21634e-12
0.0103535
-1.46185e-08
2.51937e-12
-4.05962e-08
3.24005e-13
0.0104396
-3.19759e-08
-1.18436e-12
0.0104396
3.89321e-08
2.65738e-13
0.0104396
7.31769e-08
5.54303e-13
0.0104396
5.11128e-08
-2.76516e-12
0.0104396
5.48484e-09
-5.42905e-12
0.0104396
-2.62189e-08
-3.26514e-12
0.0104396
-3.29755e-08
1.14694e-12
0.0104396
-2.4365e-08
3.16368e-12
0.0104396
-1.36625e-08
2.48521e-12
-3.9418e-08
3.19184e-13
0.0105206
-2.97922e-08
-1.19547e-12
0.0105206
4.06262e-08
2.43413e-13
0.0105206
7.30293e-08
5.96835e-13
0.0105206
4.94231e-08
-2.63201e-12
0.0105206
3.22642e-09
-5.29776e-12
0.0105206
-2.81098e-08
-3.23326e-12
0.0105206
-3.38401e-08
1.10254e-12
0.0105206
-2.39584e-08
3.10691e-12
0.0105206
-1.25716e-08
2.44358e-12
-3.79348e-08
3.10374e-13
0.0105972
-2.73015e-08
-1.20414e-12
0.0105972
4.22521e-08
2.3103e-13
0.0105972
7.25121e-08
6.51944e-13
0.0105972
4.73567e-08
-2.49003e-12
0.0105972
7.88749e-10
-5.16093e-12
0.0105972
-2.99778e-08
-3.1974e-12
0.0105972
-3.45778e-08
1.05906e-12
0.0105972
-2.34026e-08
3.04614e-12
0.0105972
-1.13658e-08
2.39553e-12
-3.61787e-08
2.98293e-13
0.0106697
-2.45417e-08
-1.21025e-12
0.0106697
4.38015e-08
2.27679e-13
0.0106697
7.16557e-08
7.17992e-13
0.0106697
4.49549e-08
-2.34076e-12
0.0106697
-1.79864e-09
-5.0198e-12
0.0106697
-3.18108e-08
-3.15856e-12
0.0106697
-3.51908e-08
1.01585e-12
0.0106697
-2.27109e-08
2.98154e-12
0.0106697
-1.00651e-08
2.34195e-12
-3.41819e-08
2.83577e-13
0.0107387
-2.155e-08
-1.21369e-12
0.0107387
4.52677e-08
2.32528e-13
0.0107387
7.04904e-08
7.93499e-13
0.0107387
4.2259e-08
-2.1856e-12
0.0107387
-4.50664e-09
-4.87551e-12
0.0107387
-3.35971e-08
-3.1176e-12
0.0107387
-3.56816e-08
9.72355e-13
0.0107387
-2.18975e-08
2.91324e-12
0.0107387
-8.68901e-09
2.28364e-12
-3.19765e-08
2.66834e-13
0.0108044
-1.83621e-08
-1.2144e-12
0.0108044
4.66451e-08
2.44817e-13
0.0108044
6.9046e-08
8.77124e-13
0.0108044
3.93092e-08
-2.02579e-12
0.0108044
-7.30691e-09
-4.72909e-12
0.0108044
-3.53259e-08
-3.07529e-12
0.0108044
-3.6054e-08
9.2815e-13
0.0108044
-2.09762e-08
2.84145e-12
0.0108044
-7.25649e-09
2.22131e-12
-2.95937e-08
2.48599e-13
0.0108672
-1.50126e-08
-1.21229e-12
0.0108672
4.79296e-08
2.63855e-13
0.0108672
6.73523e-08
9.67657e-13
0.0108672
3.61447e-08
-1.86251e-12
0.0108672
-1.01722e-08
-4.58144e-12
0.0108672
-3.69875e-08
-3.03228e-12
0.0108672
-3.63122e-08
8.829e-13
0.0108672
-1.99615e-08
2.76636e-12
0.0108672
-5.78579e-09
2.15559e-12
-2.70641e-08
2.29362e-13
0.0109272
-1.15342e-08
-1.20733e-12
0.0109272
4.91181e-08
2.89011e-13
0.0109272
6.54387e-08
1.06401e-12
0.0109272
3.28037e-08
-1.69679e-12
0.0109272
-1.30763e-08
-4.4334e-12
0.0109272
-3.85733e-08
-2.98917e-12
0.0109272
-3.64613e-08
8.36351e-13
0.0109272
-1.88678e-08
2.6882e-12
0.0109272
-4.29431e-09
2.08705e-12
-2.44172e-08
2.09445e-13
0.0109848
-7.95801e-09
-1.19949e-12
0.0109848
5.0209e-08
3.19712e-13
0.0109848
6.33338e-08
1.16519e-12
0.0109848
2.93227e-08
-1.52957e-12
0.0109849
-1.59948e-08
-4.28573e-12
0.0109849
-4.00758e-08
-2.94647e-12
0.0109849
-3.65073e-08
7.88313e-13
0.0109849
-1.77096e-08
2.60719e-12
0.0109849
-2.79848e-09
2.01621e-12
-2.16808e-08
1.89312e-13
0.0110402
-4.31337e-09
-1.18877e-12
0.0110402
5.12019e-08
3.55433e-13
0.0110402
6.10658e-08
1.27033e-12
0.0110402
2.57368e-08
-1.3617e-12
0.0110402
-1.89044e-08
-4.1391e-12
0.0110402
-4.14887e-08
-2.90461e-12
0.0110402
-3.64566e-08
7.38657e-13
0.0110402
-1.65009e-08
2.52358e-12
0.0110402
-1.31366e-09
1.94355e-12
-1.88815e-08
1.69331e-13
0.0110934
-6.2759e-10
-1.17516e-12
0.0110934
5.20972e-08
3.95693e-13
0.0110934
5.86618e-08
1.37861e-12
0.0110934
2.20792e-08
-1.19395e-12
0.0110934
-2.17838e-08
-3.99409e-12
0.0110934
-4.28069e-08
-2.86398e-12
0.0110934
-3.63164e-08
6.87302e-13
0.0110934
-1.5256e-08
2.43762e-12
0.0110934
1.45885e-10
1.8695e-12
-1.60441e-08
1.49763e-13
0.0111446
3.07394e-09
-1.15869e-12
0.0111446
5.28963e-08
4.40047e-13
0.0111447
5.61482e-08
1.48933e-12
0.0111447
1.83815e-08
-1.02701e-12
0.0111447
-2.46131e-08
-3.85126e-12
0.0111447
-4.40266e-08
-2.82489e-12
0.0111447
-3.60942e-08
6.34211e-13
0.0111447
-1.39884e-08
2.34958e-12
0.0111447
1.56712e-09
1.79446e-12
-1.31918e-08
1.30711e-13
0.0111941
6.76778e-09
-1.13941e-12
0.0111941
5.36013e-08
4.88087e-13
0.0111941
5.35501e-08
1.60184e-12
0.0111941
1.4673e-08
-8.61486e-13
0.0111941
-2.73743e-08
-3.71107e-12
0.0111941
-4.51449e-08
-2.78764e-12
0.0111941
-3.5798e-08
5.79383e-13
0.0111941
-1.27115e-08
2.25972e-12
0.0111941
2.93822e-09
1.71882e-12
-1.03458e-08
1.12692e-13
0.0112418
1.04324e-08
-1.11738e-12
0.0112418
5.42152e-08
5.3943e-13
0.0112418
5.08913e-08
1.71557e-12
0.0112418
1.09813e-08
-6.97922e-13
0.0112418
-3.00512e-08
-3.57393e-12
0.0112418
-4.61599e-08
-2.75243e-12
0.0112418
-3.54359e-08
5.22851e-13
0.0112418
-1.14377e-08
2.16831e-12
0.0112418
4.24863e-09
1.64289e-12
-7.52565e-09
9.59646e-14
0.0112879
1.40481e-08
-1.09266e-12
0.0112879
5.47411e-08
5.93724e-13
0.0112879
4.81946e-08
1.82999e-12
0.0112879
7.33181e-09
-5.36801e-13
0.0112879
-3.26291e-08
-3.4402e-12
0.0112879
-4.70708e-08
-2.71946e-12
0.0112879
-3.50161e-08
4.64671e-13
0.0112879
-1.01791e-08
2.07561e-12
0.0112879
5.48904e-09
1.56701e-12
-4.74891e-09
7.99952e-14
0.0113324
1.75971e-08
-1.06535e-12
0.0113324
5.51827e-08
6.50634e-13
0.0113324
4.54811e-08
1.94464e-12
0.0113324
3.74777e-09
-3.78542e-13
0.0113324
-3.5095e-08
-3.31018e-12
0.0113324
-4.78774e-08
-2.68886e-12
0.0113324
-3.4547e-08
4.04928e-13
0.0113324
-8.94691e-09
1.9819e-12
0.0113324
6.65142e-09
1.49146e-12
-2.03142e-09
6.56493e-14
0.0113756
2.10633e-08
-1.03554e-12
0.0113756
5.55438e-08
7.0985e-13
0.0113756
4.27705e-08
2.05911e-12
0.0113756
2.50436e-10
-2.23512e-13
0.0113756
-3.74377e-08
-3.18413e-12
0.0113756
-4.85804e-08
-2.66075e-12
0.0113756
-3.40366e-08
3.43724e-13
0.0113756
-7.75147e-09
1.88742e-12
0.0113756
7.72897e-09
1.41649e-12
6.12765e-10
5.32357e-14
0.0114173
2.44321e-08
-1.00335e-12
0.0114173
5.58283e-08
7.71078e-13
0.0114173
4.0081e-08
2.17303e-12
0.0114173
-3.14106e-09
-7.20261e-14
0.0114173
-3.96474e-08
-3.06225e-12
0.0114173
-4.9181e-08
-2.6352e-12
0.0114173
-3.34928e-08
2.81178e-13
0.0114173
-6.60227e-09
1.79244e-12
0.0114173
8.71614e-09
1.34236e-12
3.1713e-09
4.26588e-14
0.0114578
2.76908e-08
-9.68899e-13
0.0114578
5.60403e-08
8.34038e-13
0.0114578
3.74291e-08
2.28607e-12
0.0114578
-6.40964e-09
7.56362e-14
0.0114578
-4.17158e-08
-2.94472e-12
0.0114578
-4.9681e-08
-2.61224e-12
0.0114578
-3.29232e-08
2.17427e-13
0.0114578
-5.50784e-09
1.6972e-12
0.0114578
9.60852e-09
1.26927e-12
5.63347e-09
3.2403e-14
0.011497
3.08277e-08
-9.32325e-13
0.011497
5.61834e-08
8.98468e-13
0.011497
3.48298e-08
2.39794e-12
0.011497
-9.54023e-09
2.19314e-13
0.011497
-4.3636e-08
-2.83166e-12
0.011497
-5.00826e-08
-2.59188e-12
0.011497
-3.23349e-08
1.52619e-13
0.011497
-4.47575e-09
1.60196e-12
0.011497
1.04029e-08
1.19743e-12
7.99012e-09
2.39252e-14
0.0115351
3.38328e-08
-8.93772e-13
0.0115351
5.62615e-08
9.64118e-13
0.0115351
3.22964e-08
2.50839e-12
0.0115351
-1.25197e-08
3.58768e-13
0.0115351
-4.54023e-08
-2.72315e-12
0.0115351
-5.03882e-08
-2.57413e-12
0.0115351
-3.17345e-08
8.69194e-14
0.0115351
-3.51252e-09
1.50694e-12
0.0115351
1.1097e-08
1.127e-12
1.02336e-08
1.74995e-14
0.011572
3.66972e-08
-8.53392e-13
0.011572
5.62777e-08
1.03075e-12
0.011572
2.98408e-08
2.6172e-12
0.011572
-1.53369e-08
4.93879e-13
0.011572
-4.70105e-08
-2.61925e-12
0.011572
-5.06008e-08
-2.55893e-12
0.011572
-3.11282e-08
2.05488e-14
0.011572
-2.62366e-09
1.41237e-12
0.011572
1.16898e-08
1.05815e-12
1.23575e-08
1.2902e-14
0.0116078
3.94132e-08
-8.11345e-13
0.0116078
5.62351e-08
1.09814e-12
0.0116078
2.74731e-08
2.72417e-12
0.0116078
-1.79823e-08
6.24546e-13
0.0116078
-4.84573e-08
-2.51998e-12
0.0116078
-5.07231e-08
-2.54623e-12
0.0116078
-3.05215e-08
-4.60661e-14
0.0116078
-1.81364e-09
1.31846e-12
0.0116078
1.2181e-08
9.90999e-13
1.43569e-08
1.00737e-14
0.0116426
4.19743e-08
-7.67797e-13
0.0116426
5.61365e-08
1.16606e-12
0.0116426
2.52018e-08
2.82914e-12
0.0116426
-2.04483e-08
7.50699e-13
0.0116426
-4.97406e-08
-2.42532e-12
0.0116426
-5.07583e-08
-2.53595e-12
0.0116426
-2.99191e-08
-1.13994e-13
0.0116426
-1.08589e-09
1.22541e-12
0.0116426
1.25714e-08
9.25672e-13
1.6228e-08
8.97554e-15
0.0116763
4.43746e-08
-7.22919e-13
0.0116763
5.59839e-08
1.23432e-12
0.0116763
2.30342e-08
2.93197e-12
0.0116763
-2.27288e-08
8.72302e-13
0.0116763
-5.08591e-08
-2.33524e-12
0.0116763
-5.07093e-08
-2.52799e-12
0.0116763
-2.93253e-08
-1.81791e-13
0.0116763
-4.4284e-10
1.13342e-12
0.0116763
1.28625e-08
8.62261e-13
1.79679e-08
9.57076e-15
0.0117091
4.66097e-08
-6.76884e-13
0.0117091
5.57792e-08
1.30271e-12
0.0117091
2.09758e-08
3.03254e-12
0.0117091
-2.48195e-08
9.89347e-13
0.0117091
-5.18127e-08
-2.24968e-12
0.0117091
-5.05793e-08
-2.52225e-12
0.0117091
-2.87436e-08
-2.49579e-13
0.0117091
1.14079e-10
1.04267e-12
0.0117091
1.30566e-08
8.00848e-13
1.9575e-08
1.1831e-14
0.0117409
4.86755e-08
-6.29872e-13
0.0117409
5.55237e-08
1.37105e-12
0.0117409
1.90308e-08
3.13077e-12
0.0117409
-2.67174e-08
1.10185e-12
0.0117409
-5.26016e-08
-2.16855e-12
0.0117409
-5.03713e-08
-2.5186e-12
0.0117409
-2.81767e-08
-3.17236e-13
0.0117409
5.84394e-10
9.53322e-13
0.0117409
1.31565e-08
7.41495e-13
2.10484e-08
1.57877e-14
0.0117718
5.0569e-08
-5.82061e-13
0.0117718
5.52183e-08
1.43916e-12
0.0117718
1.72023e-08
3.22656e-12
0.0117718
-2.84208e-08
1.20985e-12
0.0117718
-5.32274e-08
-2.09175e-12
0.0117718
-5.00881e-08
-2.51691e-12
0.0117718
-2.76268e-08
-3.84602e-13
0.0117718
9.68552e-10
8.65536e-13
0.0117718
1.3166e-08
6.84248e-13
2.23881e-08
2.17443e-14
0.0118019
5.22879e-08
-5.33631e-13
0.0118019
5.48635e-08
1.50687e-12
0.0118019
1.54917e-08
3.31988e-12
0.0118019
-2.99295e-08
1.31342e-12
0.0118019
-5.36919e-08
-2.01914e-12
0.0118019
-4.97327e-08
-2.51703e-12
0.0118019
-2.70953e-08
-4.51509e-13
0.0118019
1.26787e-09
7.79454e-13
0.0118019
1.3089e-08
6.29138e-13
2.3595e-08
2.82134e-14
0.011831
5.38305e-08
-4.84762e-13
0.011831
5.44592e-08
1.57402e-12
0.011831
1.38997e-08
3.41067e-12
0.011831
-3.12444e-08
1.41264e-12
0.011831
-5.39978e-08
-1.9506e-12
0.011831
-4.93077e-08
-2.51882e-12
0.011831
-2.65829e-08
-5.17794e-13
0.011831
1.4845e-09
6.95207e-13
0.011831
1.29301e-08
5.76182e-13
2.46704e-08
3.50179e-14
0.0118593
5.51957e-08
-4.35632e-13
0.0118593
5.40052e-08
1.64045e-12
0.0118593
1.24257e-08
3.49892e-12
0.0118593
-3.23676e-08
1.5076e-12
0.0118593
-5.41483e-08
-1.88597e-12
0.0118593
-4.88157e-08
-2.52213e-12
0.0118593
-2.60899e-08
-5.83297e-13
0.0118593
1.62133e-09
6.12914e-13
0.0118593
1.26943e-08
5.25385e-13
2.56166e-08
4.37404e-14
0.0118867
5.63833e-08
-3.86416e-13
0.0118867
5.35008e-08
1.70602e-12
0.0118867
1.1068e-08
3.58461e-12
0.0118867
-3.33021e-08
1.59842e-12
0.0118867
-5.4147e-08
-1.82508e-12
0.0118867
-4.82593e-08
-2.52679e-12
0.0118867
-2.56158e-08
-6.47866e-13
0.0118867
1.68199e-09
5.32682e-13
0.0118867
1.23868e-08
4.76737e-13
2.6436e-08
5.34158e-14
0.0119133
5.73934e-08
-3.37286e-13
0.0119133
5.2945e-08
1.7706e-12
0.0119133
9.82414e-09
3.66775e-12
0.0119133
-3.4052e-08
1.68524e-12
0.0119133
-5.39983e-08
-1.76776e-12
0.0119133
-4.76406e-08
-2.53265e-12
0.0119133
-2.51595e-08
-7.11354e-13
0.0119133
1.67073e-09
4.54605e-13
0.0119133
1.20133e-08
4.30218e-13
2.71317e-08
6.41593e-14
0.0119391
5.82265e-08
-2.88409e-13
0.0119391
5.23367e-08
1.83405e-12
0.0119391
8.69094e-09
3.74835e-12
0.0119391
-3.46221e-08
1.76818e-12
0.0119391
-5.37068e-08
-1.71384e-12
0.0119391
-4.6962e-08
-2.53955e-12
0.0119391
-2.47197e-08
-7.7362e-13
0.0119391
1.5924e-09
3.78767e-13
0.0119391
1.15795e-08
3.85798e-13
2.77072e-08
7.57666e-14
0.0119641
5.88841e-08
-2.39945e-13
0.0119641
5.16746e-08
1.89625e-12
0.0119641
7.66439e-09
3.82644e-12
0.0119641
-3.50182e-08
1.84739e-12
0.0119641
-5.32776e-08
-1.66312e-12
0.0119641
-4.62257e-08
-2.54733e-12
0.0119641
-2.42944e-08
-8.34532e-13
0.0119641
1.45234e-09
3.0524e-13
0.0119641
1.10915e-08
3.43438e-13
2.81663e-08
8.81003e-14
0.0119883
5.93677e-08
-1.92044e-13
0.0119883
5.09573e-08
1.95708e-12
0.0119883
6.73995e-09
3.90204e-12
0.0119883
-3.52467e-08
1.92303e-12
0.0119883
-5.27164e-08
-1.61543e-12
0.0119883
-4.54336e-08
-2.55583e-12
0.0119883
-2.38813e-08
-8.93969e-13
0.0119883
1.25634e-09
2.34087e-13
0.0119883
1.05551e-08
3.0309e-13
2.8513e-08
1.01028e-13
0.0120117
5.96795e-08
-1.44842e-13
0.0120117
5.01834e-08
2.01644e-12
0.0120117
5.91257e-09
3.9752e-12
0.0120117
-3.53146e-08
1.99526e-12
0.0120117
-5.20289e-08
-1.57058e-12
0.0120117
-4.45878e-08
-2.5649e-12
0.0120117
-2.34777e-08
-9.51817e-13
0.0120117
1.01059e-09
1.65364e-13
0.0120117
9.97675e-09
2.64698e-13
2.87517e-08
1.14423e-13
0.0120344
5.98219e-08
-9.84371e-14
0.0120344
4.93517e-08
2.07424e-12
0.0120344
5.17683e-09
4.04595e-12
0.0120344
-3.52296e-08
2.06423e-12
0.0120344
-5.12213e-08
-1.52838e-12
0.0120344
-4.36904e-08
-2.5744e-12
0.0120344
-2.30807e-08
-1.00797e-12
0.0120344
7.21572e-10
9.91307e-14
0.0120344
9.36247e-09
2.28202e-13
2.88867e-08
1.28159e-13
0.0120563
5.97979e-08
-5.27557e-14
0.0120563
4.84611e-08
2.13036e-12
0.0120563
4.52702e-09
4.11435e-12
0.0120563
-3.49996e-08
2.1301e-12
0.0120563
-5.03003e-08
-1.48865e-12
0.0120563
-4.27432e-08
-2.58419e-12
0.0120563
-2.26871e-08
-1.06234e-12
0.0120563
3.96014e-10
3.55349e-14
0.0120563
8.71849e-09
1.93536e-13
2.89223e-08
1.42118e-13
0.0120775
5.96105e-08
-6.52509e-15
0.0120775
4.75107e-08
2.18474e-12
0.0120775
3.95726e-09
4.18045e-12
0.0120775
-3.46331e-08
2.19304e-12
0.0120775
-4.92726e-08
-1.45121e-12
0.0120775
-4.17482e-08
-2.59415e-12
0.0120775
-2.22935e-08
-1.11483e-12
0.0120775
4.08254e-11
-2.50729e-14
0.0120775
8.05095e-09
1.60628e-13
2.88631e-08
1.56184e-13
0.0120979
5.92633e-08
3.41615e-14
0.0120979
4.64999e-08
2.23729e-12
0.0120979
3.46157e-09
4.2443e-12
0.0120979
-3.41391e-08
2.25319e-12
0.0120979
-4.81452e-08
-1.4159e-12
0.0120979
-4.07075e-08
-2.60413e-12
0.0120979
-2.18964e-08
-1.16538e-12
0.0120979
-3.36974e-10
-8.46711e-14
0.0120979
7.36593e-09
1.29406e-13
2.87133e-08
1.70245e-13
0.0121176
5.876e-08
7.5264e-14
0.0121176
4.54287e-08
2.28793e-12
0.0121176
3.034e-09
4.30596e-12
0.0121176
-3.35265e-08
2.3107e-12
0.0121176
-4.69253e-08
-1.38255e-12
0.0121176
-3.96229e-08
-2.61405e-12
0.0121176
-2.14923e-08
-1.21392e-12
0.0121176
-7.30319e-10
-1.41054e-13
0.0121176
6.66941e-09
9.97915e-14
2.84771e-08
1.84196e-13
0.0121365
5.81042e-08
1.15154e-13
0.0121365
4.42974e-08
2.33661e-12
0.0121365
2.6687e-09
4.36547e-12
0.0121365
-3.28047e-08
2.36573e-12
0.0121365
-4.56205e-08
-1.35102e-12
0.0121365
-3.84967e-08
-2.62379e-12
0.0121365
-2.10775e-08
-1.2604e-12
0.0121365
-1.13216e-09
-1.94853e-13
0.0121365
5.96723e-09
7.17012e-14
2.81584e-08
1.97939e-13
0.0121548
5.73001e-08
1.5357e-13
0.0121548
4.31068e-08
2.38326e-12
0.0121548
2.35999e-09
4.42289e-12
0.0121548
-3.19829e-08
2.41839e-12
0.0121548
-4.42382e-08
-1.32116e-12
0.0121548
-3.73308e-08
-2.63327e-12
0.0121548
-2.06486e-08
-1.30478e-12
0.0121548
-1.53554e-09
-2.46126e-13
0.0121548
5.26508e-09
4.50369e-14
2.77607e-08
2.1138e-13
0.0121722
5.63515e-08
1.90399e-13
0.0121722
4.18585e-08
2.42784e-12
0.0121722
2.10246e-09
4.47828e-12
0.0121722
-3.10704e-08
2.46883e-12
0.0121722
-4.27859e-08
-1.29284e-12
0.0121722
-3.61274e-08
-2.64241e-12
0.0121722
-2.0202e-08
-1.34704e-12
0.0121722
-1.93363e-09
-2.94904e-13
0.0121722
4.56847e-09
1.96348e-14
2.72874e-08
2.24436e-13
0.012189
5.52627e-08
2.25561e-13
0.012189
4.05544e-08
2.47028e-12
0.012189
1.89102e-09
4.53166e-12
0.012189
-3.00768e-08
2.51714e-12
0.012189
-4.12714e-08
-1.26595e-12
0.012189
-3.48888e-08
-2.65113e-12
0.012189
-1.97344e-08
-1.38714e-12
0.012189
-2.31982e-09
-3.41215e-13
0.012189
3.88266e-09
-5.55305e-15
2.67413e-08
2.37029e-13
0.0122051
5.40376e-08
2.58997e-13
0.0122051
3.91973e-08
2.51056e-12
0.0122051
1.72096e-09
4.5831e-12
0.0122051
-2.9011e-08
2.56344e-12
0.0122051
-3.97022e-08
-1.24039e-12
0.0122051
-3.36171e-08
-2.6594e-12
0.0122051
-1.92426e-08
-1.42509e-12
0.0122051
-2.68776e-09
-3.8509e-13
0.0122051
3.21269e-09
-2.72314e-14
2.61248e-08
2.49092e-13
0.0122204
5.26803e-08
2.90662e-13
0.0122204
3.77903e-08
2.54864e-12
0.0122204
1.58799e-09
4.63262e-12
0.0122204
-2.78821e-08
2.60781e-12
0.0122204
-3.80858e-08
-1.21607e-12
0.0122204
-3.23147e-08
-2.66716e-12
0.0122204
-1.87236e-08
-1.46088e-12
0.0122204
-3.03143e-09
-4.26564e-13
0.0122204
2.56331e-09
-4.80525e-14
2.54399e-08
2.60565e-13
0.012235
5.11948e-08
3.20524e-13
0.012235
3.63374e-08
2.5845e-12
0.012235
1.48825e-09
4.68025e-12
0.012235
-2.66988e-08
2.65033e-12
0.012235
-3.64295e-08
-1.19291e-12
0.012235
-3.09838e-08
-2.67439e-12
0.012235
-1.81746e-08
-1.49454e-12
0.012235
-3.34522e-09
-4.65675e-13
0.012235
1.93894e-09
-6.80451e-14
2.4688e-08
2.71396e-13
0.0122489
4.9585e-08
3.48559e-13
0.0122489
3.4843e-08
2.61811e-12
0.0122489
1.41837e-09
4.72603e-12
0.0122489
-2.54695e-08
2.69106e-12
0.0122489
-3.47404e-08
-1.17087e-12
0.0122489
-2.96267e-08
-2.68108e-12
0.0122489
-1.75931e-08
-1.52607e-12
0.0122489
-3.62392e-09
-5.02466e-13
0.0122489
1.34366e-09
-8.70411e-14
2.38703e-08
2.81545e-13
0.0122621
4.78548e-08
3.74759e-13
0.0122621
3.3312e-08
2.64947e-12
0.0122621
1.37541e-09
4.76997e-12
0.0122621
-2.4202e-08
2.73005e-12
0.0122621
-3.30253e-08
-1.14988e-12
0.0122621
-2.82458e-08
-2.68721e-12
0.0122621
-1.69769e-08
-1.5555e-12
0.0122621
-3.86286e-09
-5.36982e-13
0.0122621
7.81122e-10
-1.05029e-13
2.29875e-08
2.90977e-13
0.0122746
4.60081e-08
3.9912e-13
0.0122746
3.17496e-08
2.67855e-12
0.0122746
1.3569e-09
4.81209e-12
0.0122746
-2.29039e-08
2.76733e-12
0.0122746
-3.12908e-08
-1.12993e-12
0.0122746
-2.68433e-08
-2.69279e-12
0.0122746
-1.63243e-08
-1.58289e-12
0.0122746
-4.05792e-09
-5.69269e-13
0.0122746
2.54573e-10
-1.2203e-13
2.20398e-08
2.99669e-13
0.0122865
4.40488e-08
4.21652e-13
0.0122865
3.01614e-08
2.70538e-12
0.0122865
1.3608e-09
4.8524e-12
0.0122865
-2.15822e-08
2.80294e-12
0.0122865
-2.95427e-08
-1.111e-12
0.0122865
-2.54213e-08
-2.69784e-12
0.0122865
-1.56337e-08
-1.60826e-12
0.0122865
-4.20558e-09
-5.99376e-13
0.0122865
-2.33239e-10
-1.38071e-13
2.10273e-08
3.07604e-13
0.0122976
4.19807e-08
4.4237e-13
0.0122976
2.85533e-08
2.72995e-12
0.0122976
1.38542e-09
4.8909e-12
0.0122976
-2.0243e-08
2.83687e-12
0.0122976
-2.77868e-08
-1.09308e-12
0.0122976
-2.39822e-08
-2.70238e-12
0.0122976
-1.4904e-08
-1.63168e-12
0.0122976
-4.30297e-09
-6.27353e-13
0.0122976
-6.80089e-10
-1.53177e-13
1.99499e-08
3.14773e-13
0.012308
3.9808e-08
4.613e-13
0.012308
2.69308e-08
2.75227e-12
0.012308
1.42943e-09
4.92759e-12
0.012308
-1.88923e-08
2.86912e-12
0.012308
-2.60281e-08
-1.07619e-12
0.012308
-2.25277e-08
-2.70645e-12
0.012308
-1.41346e-08
-1.6532e-12
0.012308
-4.34793e-09
-6.5325e-13
0.012308
-1.08431e-09
-1.67368e-13
1.88074e-08
3.21175e-13
0.0123178
3.75347e-08
4.78473e-13
0.0123178
2.52998e-08
2.77236e-12
0.0123178
1.49179e-09
4.96247e-12
0.0123178
-1.7535e-08
2.89969e-12
0.0123177
-2.42709e-08
-1.06033e-12
0.0123177
-2.106e-08
-2.71009e-12
0.0123177
-1.33252e-08
-1.67287e-12
0.0123177
-4.33903e-09
-6.77117e-13
0.0123177
-1.44486e-09
-1.80664e-13
1.75997e-08
3.26816e-13
0.0123268
3.51654e-08
4.93925e-13
0.0123268
2.36657e-08
2.79026e-12
0.0123268
1.57163e-09
4.99552e-12
0.0123268
-1.61756e-08
2.92854e-12
0.0123268
-2.25191e-08
-1.04554e-12
0.0123268
-1.95808e-08
-2.71335e-12
0.0123268
-1.2476e-08
-1.69078e-12
0.0123268
-4.2756e-09
-6.99005e-13
0.0123268
-1.7613e-09
-1.93075e-13
1.63269e-08
3.31705e-13
0.0123352
3.27048e-08
5.07697e-13
0.0123352
2.20334e-08
2.80598e-12
0.0123352
1.66828e-09
5.02673e-12
0.0123352
-1.48176e-08
2.95565e-12
0.0123352
-2.07759e-08
-1.03186e-12
0.0123352
-1.80916e-08
-2.71627e-12
0.0123352
-1.15876e-08
-1.70698e-12
0.0123352
-4.15774e-09
-7.18963e-13
0.0123352
-2.03389e-09
-2.04609e-13
1.49894e-08
3.3586e-13
0.0123429
3.01579e-08
5.19837e-13
0.0123429
2.04076e-08
2.81957e-12
0.0123429
1.78113e-09
5.05609e-12
0.0123429
-1.34642e-08
2.98098e-12
0.0123429
-1.90438e-08
-1.01933e-12
0.0123429
-1.65941e-08
-2.71893e-12
0.0123429
-1.06611e-08
-1.72155e-12
0.0123429
-3.98637e-09
-7.37037e-13
0.0123429
-2.26356e-09
-2.15271e-13
1.35879e-08
3.39299e-13
0.01235
2.75302e-08
5.3039e-13
0.01235
1.87921e-08
2.83106e-12
0.01235
1.9096e-09
5.08357e-12
0.01235
-1.21175e-08
3.00446e-12
0.01235
-1.73244e-08
-1.008e-12
0.01235
-1.50895e-08
-2.72137e-12
0.01235
-9.69803e-09
-1.73454e-12
0.01235
-3.76319e-09
-7.53273e-13
0.01235
-2.45193e-09
-2.2506e-13
1.21239e-08
3.42046e-13
0.0123564
2.48277e-08
5.39408e-13
0.0123564
1.71901e-08
2.8405e-12
0.0123564
2.05308e-09
5.10915e-12
0.0123564
-1.07791e-08
3.02607e-12
0.0123564
-1.56189e-08
-9.97923e-13
0.0123564
-1.35788e-08
-2.72365e-12
0.0123564
-8.7003e-09
-1.74604e-12
0.0123564
-3.49068e-09
-7.67715e-13
0.0123564
-2.60134e-09
-2.33972e-13
1.05994e-08
3.44126e-13
0.0123621
2.20569e-08
5.46939e-13
0.0123621
1.5604e-08
2.84793e-12
0.0123621
2.21091e-09
5.13281e-12
0.0123621
-9.44986e-09
3.04573e-12
0.0123621
-1.39276e-08
-9.89154e-13
0.0123621
-1.20631e-08
-2.72585e-12
0.0123621
-7.67031e-09
-1.75611e-12
0.0123621
-3.17209e-09
-7.80402e-13
0.0123621
-2.71481e-09
-2.42003e-13
9.01709e-09
3.45566e-13
0.0123672
1.92245e-08
5.53034e-13
0.0123672
1.40351e-08
2.85339e-12
0.0123672
2.38229e-09
5.15453e-12
0.0123672
-8.13004e-09
3.0634e-12
0.0123672
-1.22501e-08
-9.8175e-13
0.0123672
-1.05431e-08
-2.728e-12
0.0123672
-6.61082e-09
-1.7648e-12
0.0123672
-2.8114e-09
-7.91372e-13
0.0123672
-2.79601e-09
-2.49143e-13
7.38039e-09
3.46392e-13
0.0123716
1.6338e-08
5.57739e-13
0.0123716
1.24843e-08
2.85693e-12
0.0123716
2.56631e-09
5.17427e-12
0.0123716
-6.8192e-09
3.07901e-12
0.0123716
-1.05856e-08
-9.75769e-13
0.0123716
-9.01932e-09
-2.73019e-12
0.0123716
-5.52496e-09
-1.77219e-12
0.0123716
-2.41326e-09
-8.00657e-13
0.0123716
-2.84926e-09
-2.55384e-13
5.69351e-09
3.46632e-13
0.0123754
1.34053e-08
5.611e-13
0.0123754
1.09511e-08
2.85859e-12
0.0123754
2.76192e-09
5.19201e-12
0.0123754
-5.5164e-09
3.0925e-12
0.0123754
-8.93237e-09
-9.71267e-13
0.0123754
-7.49217e-09
-2.73245e-12
0.0123754
-4.4162e-09
-1.77832e-12
0.0123754
-1.98296e-09
-8.08287e-13
0.0123754
-2.87944e-09
-2.60716e-13
3.96141e-09
3.46311e-13
0.0123785
1.04344e-08
5.63158e-13
0.0123785
9.4346e-09
2.85842e-12
0.0123785
2.96794e-09
5.20774e-12
0.0123785
-4.22013e-09
3.10382e-12
0.0123785
-7.28832e-09
-9.68297e-13
0.0123785
-5.96185e-09
-2.73483e-12
0.0123785
-3.28828e-09
-1.78324e-12
0.0123785
-1.52633e-09
-8.14287e-13
0.0123785
-2.89194e-09
-2.65128e-13
2.18966e-09
3.45451e-13
0.012381
7.43403e-09
5.6395e-13
0.012381
7.93302e-09
2.85645e-12
0.012381
3.18305e-09
5.22141e-12
0.012381
-2.92844e-09
3.11291e-12
0.012381
-5.6508e-09
-9.66909e-13
0.012381
-4.42843e-09
-2.73739e-12
0.012381
-2.14518e-09
-1.78699e-12
0.012381
-1.04967e-09
-8.18677e-13
0.012381
-2.89262e-09
-2.68611e-13
3.84464e-10
3.44074e-13
0.0123829
4.41274e-09
5.63508e-13
0.0123829
6.44395e-09
2.85271e-12
0.0123829
3.40587e-09
5.23301e-12
0.0123829
-1.63897e-09
3.11973e-12
0.0123829
-4.01675e-09
-9.67148e-13
0.0123829
-2.89182e-09
-2.74015e-12
0.0123829
-9.91086e-10
-1.78961e-12
0.0123829
-5.59673e-10
-8.21474e-13
0.0123829
-2.88767e-09
-2.71155e-13
-1.44754e-09
3.42196e-13
0.0123842
1.37939e-09
5.61859e-13
0.0123842
4.96449e-09
2.84722e-12
0.0123842
3.63496e-09
5.2425e-12
0.0123842
-3.49026e-10
3.12422e-12
0.0123842
-2.38277e-09
-9.69056e-13
0.0123842
-1.35181e-09
-2.74316e-12
0.0123842
1.69696e-10
-1.79112e-12
0.0123842
-6.33134e-11
-8.22688e-13
0.0123842
-2.88357e-09
-2.72752e-13
-3.29938e-09
3.39832e-13
0.0123848
-1.65722e-09
5.59023e-13
0.0123848
3.49139e-09
2.84001e-12
0.0123848
3.86885e-09
5.24988e-12
0.0123848
9.44339e-10
3.12634e-12
0.0123848
-7.45189e-10
-9.72666e-13
0.0123848
1.9193e-10
-2.74643e-12
0.0123848
1.33278e-09
-1.79153e-12
0.0123848
4.32251e-10
-8.22325e-13
0.0123848
-2.88693e-09
-2.73396e-13
-5.16391e-09
3.3699e-13
0.0123847
-4.68842e-09
5.55013e-13
0.0123847
2.02123e-09
2.83109e-12
0.0123847
4.10614e-09
5.25511e-12
0.0123847
2.24425e-09
3.12605e-12
0.0123847
8.99844e-10
-9.78007e-13
0.0123847
1.7398e-09
-2.74998e-12
0.0123847
2.49379e-09
-1.79087e-12
0.0123847
9.19787e-10
-8.20386e-13
0.0123847
-2.90444e-09
-2.73081e-13
-7.03398e-09
3.33677e-13
0.0123841
-7.70583e-09
5.49837e-13
0.0123841
5.50527e-10
2.82045e-12
0.0123841
4.34549e-09
5.25817e-12
0.0123841