/*--------------------------------*- C++ -*----------------------------------*\
| =========                 |                                                 |
| \\      /  F ield         | OpenFOAM: The Open Source CFD Toolbox           |
|  \\    /   O peration     | Version:  2.3.0                                 |
|   \\  /    A nd           | Web:      www.OpenFOAM.org                      |
|    \\/     M anipulation  |                                                 |
\*---------------------------------------------------------------------------*/
FoamFile
{
    version     2.0;
    format      ascii;
    class       volSymmTensorField;
    location    "400";
    object      R;
}
// * * * * * * * * * * * * * * * * * * * * * * * * * * * * * * * * * * * * * //

dimensions      [0 2 -2 0 0 0 0];

internalField   nonuniform List<symmTensor> 
17000
(
(0.00383786 -0.00534936 1.96235e-16 0.00383786 -8.56937e-14 0.00383786)
(0.00383785 -0.00534936 7.77499e-16 0.00383785 -3.42727e-14 0.00383785)
(0.00383785 -0.00534936 1.73291e-15 0.00383785 3.02041e-13 0.00383785)
(0.00383783 -0.00534933 8.47053e-16 0.00383783 7.37453e-13 0.00383783)
(0.00383783 -0.00534933 -1.83527e-15 0.00383783 6.64629e-13 0.00383783)
(0.00383783 -0.00534933 -3.66887e-15 0.00383783 -8.70353e-14 0.00383783)
(0.00383783 -0.00534933 -1.70071e-15 0.00383783 -9.49343e-13 0.00383783)
(0.00383784 -0.00534935 2.06691e-15 0.00383784 -8.56514e-13 0.00383784)
(0.00383784 -0.00534934 1.60684e-15 0.00383784 -1.5211e-13 0.00383784)
(0.00383785 -0.00534935 -2.25955e-17 0.00383785 -1.66085e-13 0.00383785)
(0.00390398 -0.00180352 1.10952e-15 0.00390398 -3.68255e-15 0.00390398)
(0.00390397 -0.00180351 2.73634e-15 0.00390397 1.66509e-13 0.00390397)
(0.00390396 -0.0018035 1.40076e-10 0.00390396 2.40923e-13 0.00390396)
(0.00390395 -0.00180348 2.24457e-15 0.00390395 2.65394e-13 0.00390395)
(0.00390394 -0.0018035 -5.33134e-15 0.00390394 2.1593e-13 0.00390394)
(0.00390394 -0.0018035 -1.02412e-14 0.00390394 1.24314e-13 0.00390394)
(0.00390394 -0.00180348 -5.01293e-15 0.00390394 9.44529e-14 0.00390394)
(0.00390395 -0.00180349 4.38382e-15 0.00390395 -2.77486e-14 0.00390395)
(0.00390395 -0.0018035 4.27849e-15 0.00390395 -3.52311e-13 0.00390395)
(0.00390396 -0.0018035 8.76501e-16 0.00390396 -6.55892e-14 0.00390396)
(0.00377577 -0.00170188 2.62043e-15 0.00377577 3.88318e-15 0.00377577)
(0.00377575 -0.00170188 5.21801e-15 0.00377575 2.20927e-13 0.00377575)
(0.00377574 -0.00170185 8.2103e-15 0.00377574 2.78907e-13 0.00377574)
(0.00377573 -0.00170186 3.46222e-15 0.00377573 2.42605e-13 0.00377573)
(0.00377572 -0.00170186 -8.94809e-15 0.00377572 1.85415e-13 0.00377572)
(0.00377572 -0.00170186 -1.66845e-14 0.00377572 1.66709e-13 0.00377572)
(0.00377572 -0.00170186 -8.47801e-15 0.00377572 2.33775e-13 0.00377572)
(0.00377573 -0.00170186 2.28508e-10 0.00377573 7.67839e-14 0.00377573)
(0.00377573 -0.00170186 6.5955e-15 0.00377573 -4.1509e-13 0.00377573)
(0.00377575 -0.00170187 2.55972e-15 0.00377575 -8.96848e-14 0.00377575)
(0.00368475 -0.00166265 4.54347e-15 0.00368475 8.99174e-15 0.00368475)
(0.00368473 -0.00166263 8.00725e-15 0.00368473 2.37546e-13 0.00368473)
(0.00368472 -0.00166263 1.1392e-14 0.00368472 2.84738e-13 0.00368472)
(0.00368471 -0.00166265 3.17254e-10 0.00368471 2.14053e-13 0.00368471)
(0.0036847 -0.00166262 -1.25413e-14 0.0036847 1.56256e-13 0.0036847)
(0.00368469 -0.00166263 -2.28776e-14 0.00368469 1.7846e-13 0.00368469)
(0.0036847 -0.00166264 -1.19654e-14 0.0036847 2.85225e-13 0.0036847)
(0.00368471 -0.00166261 5.66608e-15 0.00368471 1.19818e-13 0.00368471)
(0.00368471 -0.00166262 8.57145e-15 0.00368471 -4.16195e-13 0.00368471)
(0.00368473 -0.00166263 4.69628e-15 0.00368473 -1.04552e-13 0.00368473)
(0.00361234 -0.00163451 6.69557e-15 0.00361234 1.5058e-14 0.00361234)
(0.00361232 -0.00163449 1.09101e-14 0.00361232 2.31036e-13 0.00361232)
(0.0036123 -0.00163448 1.44221e-14 0.0036123 2.65621e-13 0.0036123)
(0.00361229 -0.00163447 5.41052e-15 0.00361229 1.75133e-13 0.00361229)
(0.00361228 -0.0016345 -1.59913e-14 0.00361228 1.23479e-13 0.00361228)
(0.00361228 -0.0016345 4.04052e-10 0.00361228 1.73288e-13 0.00361228)
(0.00361228 -0.00163449 -1.53906e-14 0.00361228 2.91604e-13 0.00361228)
(0.00361229 -0.00163447 5.36891e-15 0.00361229 1.30291e-13 0.00361229)
(0.0036123 -0.00163447 1.02646e-14 0.0036123 -3.81884e-13 0.0036123)
(0.00361231 -0.00163449 7.04381e-15 0.00361231 -1.06913e-13 0.00361231)
(0.00354955 -0.00161069 8.93802e-15 0.00354955 2.2819e-14 0.00354955)
(0.00354954 -0.00161068 1.37959e-14 0.00354954 2.1083e-13 0.00354954)
(0.00354951 -0.0016107 1.72768e-14 0.00354951 2.29499e-13 0.00354951)
(0.0035495 -0.00161065 6.21175e-15 0.0035495 1.28087e-13 0.0035495)
(0.00354949 -0.00161069 4.8815e-10 0.00354949 8.75591e-14 0.00354949)
(0.00354949 -0.00161064 4.88133e-10 0.00354949 1.5904e-13 0.00354949)
(0.00354949 -0.00161064 -1.87302e-14 0.00354949 2.75468e-13 0.00354949)
(0.00354951 -0.00161065 4.79654e-15 0.00354951 1.241e-13 0.00354951)
(0.00354951 -0.00161065 1.17613e-14 0.00354951 -3.28837e-13 0.00354951)
(0.00354953 -0.00161067 9.44902e-15 0.00354953 -9.78697e-14 0.00354953)
(0.00349226 -0.00158877 1.11691e-14 0.00349226 3.20687e-14 0.00349226)
(0.00349225 -0.00158881 1.65755e-14 0.00349225 1.82603e-13 0.00349225)
(0.00349222 -0.0015888 5.69244e-10 0.00349222 1.82015e-13 0.00349222)
(0.0034922 -0.00158878 6.95015e-15 0.0034922 7.51191e-14 0.0034922)
(0.00349219 -0.00158873 -2.22765e-14 0.00349219 4.92285e-14 0.00349219)
(0.00349219 -0.00158877 -3.94551e-14 0.00349219 1.40233e-13 0.00349219)
(0.0034922 -0.00158877 -2.1977e-14 0.0034922 2.49585e-13 0.0034922)
(0.00349221 -0.00158877 4.11205e-15 0.00349221 1.10951e-13 0.00349221)
(0.00349222 -0.00158878 1.31355e-14 0.00349222 -2.66477e-13 0.00349222)
(0.00349223 -0.00158879 1.18181e-14 0.00349223 -7.96162e-14 0.00349223)
(0.00343839 -0.00156789 1.33163e-14 0.00343839 4.23603e-14 0.00343839)
(0.00343837 -0.00156788 6.47188e-10 0.00343837 1.49726e-13 0.00343837)
(0.00343834 -0.00156781 2.24378e-14 0.00343834 1.27028e-13 0.00343834)
(0.00343832 -0.00156785 6.47162e-10 0.00343832 1.79651e-14 0.00343832)
(0.00343831 -0.00156783 -2.50691e-14 0.00343831 9.16289e-15 0.00343831)
(0.00343831 -0.00156783 6.47104e-10 0.00343831 1.19588e-13 0.00343831)
(0.00343832 -0.00156784 -2.51259e-14 0.00343832 2.21304e-13 0.00343832)
(0.00343833 -0.00156784 3.41962e-15 0.00343833 9.67217e-14 0.00343833)
(0.00343834 -0.00156785 1.44417e-14 0.00343834 -2.0013e-13 0.00343834)
(0.00343835 -0.00156786 1.4094e-14 0.00343835 -5.44305e-14 0.00343835)
(0.00338679 -0.00154747 7.22039e-10 0.00338679 5.29149e-14 0.00338679)
(0.00338677 -0.00154739 7.22037e-10 0.00338677 1.14271e-13 0.00338677)
(0.00338674 -0.00154743 2.47424e-14 0.00338674 6.73901e-14 0.00338674)
(0.00338672 -0.00154736 8.34933e-15 0.00338672 -4.20151e-14 0.00338672)
(0.00338671 -0.00154741 7.21969e-10 0.00338671 -3.18469e-14 0.00338671)
(0.00338671 -0.00154734 -4.89628e-14 0.00338671 9.88437e-14 0.00338671)
(0.00338672 -0.0015474 -2.81706e-14 0.00338672 1.94911e-13 0.00338672)
(0.00338673 -0.00154742 2.78288e-15 0.00338673 8.49603e-14 0.00338673)
(0.00338675 -0.00154742 1.57159e-14 0.00338675 -1.32808e-13 0.00338675)
(0.00338676 -0.00154743 1.62414e-14 0.00338676 -2.43154e-14 0.00338676)
(0.00333681 -0.00152725 1.71675e-14 0.00333681 6.30439e-14 0.00333681)
(0.00333679 -0.00152724 2.37569e-14 0.00333679 7.72976e-14 0.00333679)
(0.00333677 -0.00152728 7.93861e-10 0.00333677 5.00036e-15 0.00333677)
(0.00333674 -0.0015272 9.04808e-15 0.00333674 -1.03542e-13 0.00333674)
(0.00333673 -0.00152718 -2.99054e-14 0.00333673 -7.30625e-14 0.00333673)
(0.00333673 -0.00152724 -5.32814e-14 0.00333673 7.91713e-14 0.00333673)
(0.00333675 -0.00152725 7.93788e-10 0.00333675 1.72795e-13 0.00333675)
(0.00333676 -0.00152726 2.23857e-15 0.00333676 7.77086e-14 0.00333676)
(0.00333677 -0.00152727 1.69799e-14 0.00333677 -6.62612e-14 0.00333677)
(0.00333679 -0.00152728 1.82396e-14 0.00333679 8.65559e-15 0.00333679)
(0.00328805 -0.00150727 1.88116e-14 0.00328805 7.20357e-14 0.00328805)
(0.00328803 -0.00150725 2.56704e-14 0.00328803 3.98e-14 0.00328803)
(0.003288 -0.00150723 2.88041e-14 0.003288 -5.8769e-14 0.003288)
(0.00328797 -0.00150728 9.7628e-15 0.00328797 -1.65491e-13 0.00328797)
(0.00328797 -0.00150726 -3.19405e-14 0.00328797 -1.14025e-13 0.00328797)
(0.00328797 -0.00150726 8.6265e-10 0.00328797 6.13523e-14 0.00328797)
(0.00328798 -0.0015072 -3.39176e-14 0.00328798 1.56377e-13 0.00328798)
(0.00328799 -0.0015072 1.80481e-15 0.00328799 7.60342e-14 0.00328799)
(0.00328801 -0.00150722 1.82439e-14 0.00328801 -1.48702e-15 0.00328801)
(0.00328803 -0.00150723 2.00758e-14 0.00328803 4.29503e-14 0.00328803)
(0.00324023 -0.00148738 2.02451e-14 0.00324023 7.95149e-14 0.00324023)
(0.0032402 -0.00148737 2.73229e-14 0.0032402 1.98033e-15 0.0032402)
(0.00324017 -0.00148734 3.05669e-14 0.00324017 -1.2261e-13 0.00324017)
(0.00324015 -0.00148732 1.05008e-14 0.00324015 -2.27184e-13 0.00324015)
(0.00324014 -0.00148739 -3.37187e-14 0.00324014 -1.54049e-13 0.00324014)
(0.00324014 -0.0014873 -6.10528e-14 0.00324014 4.59737e-14 0.00324014)
(0.00324015 -0.00148731 -3.66022e-14 0.00324015 1.46085e-13 0.00324015)
(0.00324017 -0.00148733 1.48882e-15 0.00324017 8.02888e-14 0.00324017)
(0.00324019 -0.00148733 1.95104e-14 0.00324019 6.09072e-14 0.00324019)
(0.0032402 -0.00148734 2.17421e-14 0.0032402 7.73342e-14 0.0032402)
(0.00319315 -0.00146753 2.14598e-14 0.00319315 8.47701e-14 0.00319315)
(0.00319313 -0.00146751 2.87133e-14 0.00319313 -3.58405e-14 0.00319313)
(0.0031931 -0.00146749 9.92107e-10 0.0031931 -1.85723e-13 0.0031931)
(0.00319307 -0.00146747 1.12678e-14 0.00319307 -2.87764e-13 0.00319307)
(0.00319307 -0.00146746 9.92019e-10 0.00319307 -1.92476e-13 0.00319307)
(0.00319307 -0.00146745 -6.45029e-14 0.00319307 3.34197e-14 0.00319307)
(0.00319308 -0.00146746 -3.91503e-14 0.00319308 1.42109e-13 0.00319308)
(0.0031931 -0.00146746 1.2892e-15 0.0031931 9.0618e-14 0.0031931)
(0.00319311 -0.00146748 2.07757e-14 0.00319311 1.20547e-13 0.00319311)
(0.00319313 -0.00146749 2.32344e-14 0.00319313 1.10832e-13 0.00319313)
(0.00314671 -0.00144765 2.24529e-14 0.00314671 8.75455e-14 0.00314671)
(0.00314668 -0.00144763 2.98453e-14 0.00314668 -7.37084e-14 0.00314668)
(0.00314665 -0.0014476 3.3578e-14 0.00314665 -2.47518e-13 0.00314665)
(0.00314663 -0.00144766 1.20672e-14 0.00314663 -3.46588e-13 0.00314663)
(0.00314661 -0.00144757 -3.65071e-14 0.00314661 -2.28861e-13 0.00314661)
(0.00314662 -0.00144757 -6.7661e-14 0.00314662 2.3951e-14 0.00314662)
(0.00314663 -0.00144757 -4.1554e-14 0.00314663 1.44398e-13 0.00314663)
(0.00314665 -0.00144759 1.19976e-15 0.00314665 1.06521e-13 0.00314665)
(0.00314667 -0.0014476 2.20324e-14 0.00314667 1.7721e-13 0.00314667)
(0.00314668 -0.00144761 2.45504e-14 0.00314668 1.42506e-13 0.00314668)
(0.00310079 -0.00142788 2.3225e-14 0.00310079 8.74957e-14 0.00310079)
(0.00310077 -0.00142777 3.07265e-14 0.00310077 -1.1131e-13 0.00310077)
(0.00310073 -0.00142774 3.48392e-14 0.00310073 -3.07416e-13 0.00310073)
(0.00310071 -0.00142772 1.29016e-14 0.00310071 -4.02902e-13 0.00310071)
(0.0031007 -0.0014278 -3.75238e-14 0.0031007 -2.62731e-13 0.0031007)
(0.0031007 -0.0014278 -7.05254e-14 0.0031007 1.77252e-14 0.0031007)
(0.00310071 -0.0014278 -4.3808e-14 0.00310071 1.52394e-13 0.00310071)
(0.00310073 -0.00142782 1.21091e-15 0.00310073 1.27436e-13 0.00310073)
(0.00310075 -0.00142783 2.32703e-14 0.00310075 2.30714e-13 0.00310075)
(0.00310077 -0.00142785 2.56888e-14 0.00310077 1.71629e-13 0.00310077)
(0.00305533 -0.00140808 2.37802e-14 0.00305533 8.44724e-14 0.00305533)
(0.0030553 -0.00140796 3.13666e-14 0.0030553 -1.48646e-13 0.0030553)
(0.00305527 -0.00140793 3.5947e-14 0.00305527 -3.64963e-13 0.00305527)
(0.00305525 -0.00140791 1.37726e-14 0.00305525 -4.56165e-13 0.00305525)
(0.00305523 -0.00140799 1.16627e-09 0.00305523 -2.93708e-13 0.00305523)
(0.00305524 -0.00140799 -7.30981e-14 0.00305524 1.47728e-14 0.00305524)
(0.00305525 -0.001408 -4.59073e-14 0.00305525 1.65813e-13 0.00305525)
(0.00305527 -0.00140801 1.31112e-15 0.00305527 1.52929e-13 0.00305527)
(0.00305529 -0.00140803 2.44778e-14 0.00305529 2.80907e-13 0.00305529)
(0.00305531 -0.00140804 2.66499e-14 0.00305531 1.97653e-13 0.00305531)
(0.00301027 -0.00138809 1.21957e-09 0.00301027 7.84258e-14 0.00301027)
(0.00301025 -0.00138816 3.17788e-14 0.00301025 -1.85615e-13 0.00301025)
(0.00301021 -0.00138813 3.69112e-14 0.00301021 -4.19985e-13 0.00301021)
(0.00301019 -0.00138811 1.46814e-14 0.00301019 -5.06321e-13 0.00301019)
(0.00301018 -0.0013881 1.21944e-09 0.00301018 -3.21417e-13 0.00301018)
(0.00301019 -0.0013881 -7.53802e-14 0.00301019 1.52078e-14 0.00301019)
(0.0030102 -0.0013881 -4.78494e-14 0.0030102 1.84102e-13 0.0030102)
(0.00301022 -0.00138812 1.48786e-15 0.00301022 1.82154e-13 0.00301022)
(0.00301024 -0.00138814 2.56428e-14 0.00301024 3.27655e-13 0.00301024)
(0.00301025 -0.00138815 2.74344e-14 0.00301025 2.20512e-13 0.00301025)
(0.00296557 -0.00136823 2.42672e-14 0.00296557 6.96481e-14 0.00296557)
(0.00296555 -0.00136831 3.19775e-14 0.00296555 -2.22361e-13 0.00296555)
(0.00296552 -0.00136828 3.77409e-14 0.00296552 -4.72015e-13 0.00296552)
(0.00296549 -0.00136825 1.56287e-14 0.00296549 -5.52771e-13 0.00296549)
(0.00296549 -0.00136814 1.27026e-09 0.00296549 -3.45668e-13 0.00296549)
(0.00296549 -0.00136824 -7.7376e-14 0.00296549 1.90154e-14 0.00296549)
(0.00296551 -0.00136825 -4.96328e-14 0.00296551 2.06422e-13 0.00296551)
(0.00296553 -0.00136827 1.72799e-15 0.00296553 2.14561e-13 0.00296553)
(0.00296555 -0.00136828 2.67528e-14 0.00296555 3.70871e-13 0.00296555)
(0.00296556 -0.00136819 2.80439e-14 0.00296556 2.39643e-13 0.00296556)
(0.00292121 -0.00134851 2.42165e-14 0.00292121 5.76213e-14 0.00292121)
(0.00292119 -0.00134838 3.19793e-14 0.00292119 -2.58462e-13 0.00292119)
(0.00292115 -0.00134835 3.84469e-14 0.00292115 -5.20877e-13 0.00292115)
(0.00292113 -0.00134843 1.6615e-14 0.00292113 -5.95123e-13 0.00292113)
(0.00292112 -0.00134832 -3.91987e-14 0.00292112 -3.66234e-13 0.00292112)
(0.00292113 -0.00134832 -7.90904e-14 0.00292113 2.57933e-14 0.00292113)
(0.00292115 -0.00134833 -5.12581e-14 0.00292115 2.32641e-13 0.00292115)
(0.00292117 -0.00134835 2.01835e-15 0.00292117 2.49153e-13 0.00292117)
(0.00292119 -0.00134836 2.77962e-14 0.00292119 4.1046e-13 0.00292119)
(0.00292119 -0.00134837 2.84806e-14 0.00292119 2.55092e-13 0.00292119)
(0.00287715 -0.00132859 2.39836e-14 0.00287715 4.29262e-14 0.00287715)
(0.00287712 -0.00132844 3.17991e-14 0.00287712 -2.93884e-13 0.00287712)
(0.00287709 -0.00132842 3.90406e-14 0.00287709 -5.66558e-13 0.00287709)
(0.00287707 -0.0013285 1.36526e-09 0.00287707 -6.33324e-13 0.00287707)
(0.00287706 -0.00132849 -3.90554e-14 0.00287706 -3.82996e-13 0.00287706)
(0.00287707 -0.00132839 -8.05304e-14 0.00287707 3.55927e-14 0.00287707)
(0.00287709 -0.0013284 -5.27271e-14 0.00287709 2.6171e-13 0.00287709)
(0.00287711 -0.00132842 2.34602e-15 0.00287711 2.85439e-13 0.00287711)
(0.00287713 -0.00132843 2.87615e-14 0.00287713 4.46294e-13 0.00287713)
(0.00287713 -0.00132855 2.87473e-14 0.00287713 2.66711e-13 0.00287713)
(0.00283336 -0.00130854 2.35796e-14 0.00283336 2.5613e-14 0.00283336)
(0.00283334 -0.00130863 3.14542e-14 0.00283334 -3.28592e-13 0.00283334)
(0.00283331 -0.0013086 3.95313e-14 0.00283331 -6.08688e-13 0.00283331)
(0.00283329 -0.00130847 1.87057e-14 0.00283329 -6.67131e-13 0.00283329)
(0.00283328 -0.00130846 -3.87043e-14 0.00283328 -3.95904e-13 0.00283328)
(0.00283329 -0.00130846 -8.17037e-14 0.00283329 4.81835e-14 0.00283329)
(0.00283331 -0.00130847 -5.40427e-14 0.00283331 2.93117e-13 0.00283331)
(0.00283333 -0.00130849 2.69848e-15 0.00283333 3.22691e-13 0.00283333)
(0.00283335 -0.0013085 2.96388e-14 0.00283335 4.78357e-13 0.00283335)
(0.00283335 -0.00130851 2.88477e-14 0.00283335 2.74574e-13 0.00283335)
(0.00278985 -0.00128853 2.30164e-14 0.00278985 5.96265e-15 0.00278985)
(0.00278983 -0.00128862 3.09618e-14 0.00278983 -3.62475e-13 0.00278983)
(0.00278979 -0.00128859 3.9933e-14 0.00278979 -6.47181e-13 0.00278979)
(0.00278977 -0.00128845 1.98102e-14 0.00278977 -6.96467e-13 0.00278977)
(0.00278977 -0.00128856 -3.81552e-14 0.00278977 -4.04965e-13 0.00278977)
(0.00278978 -0.00128857 -8.26201e-14 0.00278978 6.3439e-14 0.00278978)
(0.00278979 -0.00128858 -5.52099e-14 0.00278979 3.265e-13 0.00278979)
(0.00278982 -0.0012886 3.06389e-15 0.00278982 3.60238e-13 0.00278982)
(0.00278983 -0.00128861 3.0419e-14 0.00278983 5.06574e-13 0.00278983)
(0.00278985 -0.00128862 2.87861e-14 0.00278985 2.78537e-13 0.00278985)
(0.00274659 -0.00126864 2.23065e-14 0.00274659 -1.57859e-14 0.00274659)
(0.00274657 -0.00126849 3.03395e-14 0.00274657 -3.95321e-13 0.00274657)
(0.00274653 -0.00126846 4.0254e-14 0.00274653 -6.81959e-13 0.00274653)
(0.00274651 -0.00126856 2.0954e-14 0.00274651 -7.2127e-13 0.00274651)
(0.00274651 -0.00126856 -3.74185e-14 0.00274651 -4.10189e-13 0.00274651)
(0.00274652 -0.00126856 -8.32892e-14 0.00274652 8.10443e-14 0.00274652)
(0.00274654 -0.00126857 -5.62344e-14 0.00274654 3.60806e-13 0.00274654)
(0.00274656 -0.00126859 3.43107e-15 0.00274656 3.97523e-13 0.00274656)
(0.00274658 -0.00126861 3.10947e-14 0.00274658 5.30949e-13 0.00274658)
(0.00274659 -0.00126861 2.8567e-14 0.00274659 2.79196e-13 0.00274659)
(0.00270357 -0.00124859 2.14622e-14 0.00270357 -3.93547e-14 0.00270357)
(0.00270355 -0.00124856 2.96033e-14 0.00270355 -4.26733e-13 0.00270355)
(0.00270352 -0.00124853 4.05079e-14 0.00270352 -7.13171e-13 0.00270352)
(0.0027035 -0.00124851 2.21365e-14 0.0027035 -7.41345e-13 0.0027035)
(0.0027035 -0.0012485 -3.65046e-14 0.0027035 -4.11728e-13 0.0027035)
(0.00270351 -0.0012485 -8.37234e-14 0.00270351 1.00498e-13 0.00270351)
(0.00270353 -0.00124852 -5.71219e-14 0.00270353 3.95987e-13 0.00270353)
(0.00270355 -0.00124854 3.7896e-15 0.00270355 4.34033e-13 0.00270355)
(0.00270357 -0.00124855 3.16591e-14 0.00270357 5.51494e-13 0.00270357)
(0.00270357 -0.00124856 2.81964e-14 0.00270357 2.76059e-13 0.00270357)
(0.0026608 -0.00122895 2.04963e-14 0.0026608 -6.43767e-14 0.0026608)
(0.00266077 -0.00122904 2.87693e-14 0.00266077 -4.57029e-13 0.00266077)
(0.00266075 -0.00122901 4.07046e-14 0.00266075 -7.40473e-13 0.00266075)
(0.00266073 -0.00122887 2.33574e-14 0.00266073 -7.57167e-13 0.00266073)
(0.00266072 -0.00122886 -3.54246e-14 0.00266072 -4.0972e-13 0.00266072)
(0.00266073 -0.00122887 -8.39349e-14 0.00266073 1.21584e-13 0.00266073)
(0.00266075 -0.00122888 -5.78811e-14 0.00266075 4.31455e-13 0.00266075)
(0.00266078 -0.0012289 4.13002e-15 0.00266078 4.69277e-13 0.00266078)
(0.00266079 -0.00122891 3.21074e-14 0.00266079 5.68206e-13 0.00266079)
(0.0026608 -0.00122892 2.76803e-14 0.0026608 2.69828e-13 0.0026608)
(0.00261825 -0.00120833 1.94212e-14 0.00261825 -9.05566e-14 0.00261825)
(0.00261823 -0.0012083 2.78541e-14 0.00261823 -4.85806e-13 0.00261823)
(0.0026182 -0.00120827 4.0855e-14 0.0026182 -7.6417e-13 0.0026182)
(0.00261819 -0.00120825 2.46155e-14 0.00261819 -7.68662e-13 0.00261819)
(0.00261818 -0.00120811 -3.41901e-14 0.00261818 -4.04357e-13 0.00261818)
(0.00261819 -0.00120812 -8.39365e-14 0.00261819 1.44259e-13 0.00261819)
(0.00261821 -0.00120814 -5.85189e-14 0.00261821 4.66667e-13 0.00261821)
(0.00261824 -0.00120816 4.44368e-15 0.00261824 5.02842e-13 0.00261824)
(0.00261825 -0.00120817 3.24358e-14 0.00261825 5.81191e-13 0.00261825)
(0.00261826 -0.00120818 2.70256e-14 0.00261826 2.6057e-13 0.00261826)
(0.00257594 -0.00118777 1.82496e-14 0.00257594 -1.17586e-13 0.00257594)
(0.00257591 -0.00118773 2.68711e-14 0.00257591 -5.12626e-13 0.00257591)
(0.00257589 -0.0011877 4.09671e-14 0.00257589 -7.83981e-13 0.00257589)
(0.00257587 -0.00118769 2.59098e-14 0.00257587 -7.75714e-13 0.00257587)
(0.00257587 -0.00118769 -3.28124e-14 0.00257587 -3.95844e-13 0.00257587)
(0.00257589 -0.0011877 -8.37418e-14 0.00257589 1.67776e-13 0.00257589)
(0.00257591 -0.00118771 -5.90443e-14 0.00257591 5.01234e-13 0.00257591)
(0.00257593 -0.00118773 4.72282e-15 0.00257593 5.34372e-13 0.00257593)
(0.00257594 -0.00118774 3.26418e-14 0.00257594 5.90497e-13 0.00257594)
(0.00257595 -0.00118775 2.62395e-14 0.00257595 2.48561e-13 0.00257595)
(0.00253385 -0.00116898 1.69935e-14 0.00253385 -1.45126e-13 0.00253385)
(0.00253383 -0.00116762 2.58363e-14 0.00253383 -5.37859e-13 0.00253383)
(0.00253381 -0.00116759 4.10525e-14 0.00253381 -8.00085e-13 0.00253381)
(0.00253379 -0.0011689 2.72389e-14 0.00253379 -7.78722e-13 0.00253379)
(0.00253379 -0.00116891 -3.13034e-14 0.00253379 -3.84456e-13 0.00253379)
(0.00253381 -0.00116892 -8.33645e-14 0.00253381 1.92219e-13 0.00253381)
(0.00253383 -0.00116893 -5.94655e-14 0.00253383 5.34453e-13 0.00253383)
(0.00253385 -0.00116895 4.9606e-15 0.00253385 5.63601e-13 0.00253385)
(0.00253386 -0.00116896 3.27246e-14 0.00253386 5.96262e-13 0.00253386)
(0.00253386 -0.00116896 2.53299e-14 0.00253386 2.34093e-13 0.00253386)
(0.00249201 -0.00114753 1.56652e-14 0.002492 -1.72843e-13 0.002492)
(0.00249199 -0.00114749 2.47623e-14 0.00249198 -5.61059e-13 0.00249198)
(0.00249194 -0.00114747 -1.69395e-08 0.00249195 -8.12898e-13 0.00249195)
(0.00249193 -0.00114746 2.86011e-14 0.00249194 -7.77872e-13 0.00249194)
(0.00249194 -0.00114746 -2.96751e-14 0.00249194 -3.70287e-13 0.00249194)
(0.00249195 -0.00114746 -8.28191e-14 0.00249195 2.17002e-13 0.00249195)
(0.00249197 -0.00114748 -5.9792e-14 0.00249197 5.66334e-13 0.00249197)
(0.00249199 -0.0011475 5.15083e-15 0.00249199 5.90246e-13 0.00249199)
(0.00249201 -0.00114751 3.26834e-14 0.00249201 5.98632e-13 0.00249201)
(0.00249201 -0.00114752 2.43049e-14 0.00249201 2.17456e-13 0.00249201)
(0.00245038 -0.0011277 1.4276e-14 0.00245038 -2.00468e-13 0.00245038)
(0.00245035 -0.00112904 2.36618e-14 0.00245035 -5.82293e-13 0.00245035)
(0.00245033 -0.00112902 4.11746e-14 0.00245033 -8.21811e-13 0.00245033)
(0.00245032 -0.00112763 2.99957e-14 0.00245032 -7.73347e-13 0.00245032)
(0.00245032 -0.00112762 -2.79381e-14 0.00245032 -3.53956e-13 0.00245032)
(0.00245033 -0.00112763 -8.21197e-14 0.00245033 2.4205e-13 0.00245033)
(0.00245036 -0.00112766 -6.00315e-14 0.00245036 5.96764e-13 0.00245036)
(0.00245038 -0.00112767 5.29015e-15 0.00245038 6.14121e-13 0.00245038)
(0.00245039 -0.00112769 3.25214e-14 0.00245039 5.97755e-13 0.00245039)
(0.00245039 -0.00112769 2.31745e-14 0.00245039 1.98949e-13 0.00245039)
(0.00240899 -0.00110843 1.28386e-14 0.00240899 -2.27659e-13 0.00240899)
(0.00240897 -0.00110839 2.25468e-14 0.00240897 -6.013e-13 0.00240897)
(0.00240895 -0.00110837 4.12253e-14 0.00240895 -8.27722e-13 0.00240895)
(0.00240893 -0.00110836 3.14182e-14 0.00240893 -7.65427e-13 0.00240893)
(0.00240894 -0.00110836 -2.61063e-14 0.00240894 -3.35547e-13 0.00240894)
(0.00240895 -0.00110837 -8.12817e-14 0.00240895 2.66985e-13 0.00240895)
(0.00240897 -0.00110839 -6.01948e-14 0.00240897 6.24819e-13 0.00240897)
(0.00240899 -0.00110841 5.37202e-15 0.00240899 6.35096e-13 0.00240899)
(0.00240901 -0.00110842 3.2238e-14 0.00240901 5.93802e-13 0.00240901)
(0.00240901 -0.00110842 2.19454e-14 0.00240901 1.78887e-13 0.00240901)
(0.00236785 -0.00108714 1.13616e-14 0.00236785 -2.54195e-13 0.00236785)
(0.00236783 -0.00108711 2.14279e-14 0.00236783 -6.18171e-13 0.00236783)
(0.0023678 -0.00108708 4.128e-14 0.0023678 -8.3025e-13 0.0023678)
(0.00236779 -0.00108708 3.28668e-14 0.00236779 -7.54298e-13 0.00236779)
(0.0023678 -0.00108708 -2.41899e-14 0.0023678 -3.1546e-13 0.0023678)
(0.00236781 -0.00108709 -8.03183e-14 0.00236781 2.91327e-13 0.00236781)
(0.00236783 -0.00108711 -6.02897e-14 0.00236783 6.50942e-13 0.00236783)
(0.00236785 -0.00108713 5.39404e-15 0.00236785 6.5313e-13 0.00236785)
(0.00236787 -0.00108714 3.18385e-14 0.00236787 5.87021e-13 0.00236787)
(0.00236786 -0.00108714 2.06282e-14 0.00236786 1.57538e-13 0.00236786)
(0.00232695 -0.00106683 9.85667e-15 0.00232695 -2.79804e-13 0.00232695)
(0.00232693 -0.0010668 2.03131e-14 0.00232693 -6.32832e-13 0.00232693)
(0.00232691 -0.00106678 4.1343e-14 0.00232691 -8.295e-13 0.00232691)
(0.0023269 -0.00106678 3.43408e-14 0.0023269 -7.40299e-13 0.0023269)
(0.0023269 -0.00106677 -2.22011e-14 0.0023269 -2.93757e-13 0.0023269)
(0.00232692 -0.00106679 -7.92424e-14 0.00232692 3.15056e-13 0.00232692)
(0.00232694 -0.00106681 -6.03251e-14 0.00232694 6.74399e-13 0.00232694)
(0.00232696 -0.00106683 5.35574e-15 0.00232696 6.68102e-13 0.00232696)
(0.00232697 -0.00106683 3.13256e-14 0.00232697 5.7761e-13 0.00232697)
(0.00232697 -0.00106684 1.92317e-14 0.00232697 1.35244e-13 0.00232697)
(0.00228631 -0.00104629 8.33297e-15 0.00228631 -3.04199e-13 0.00228631)
(0.00228629 -0.00104625 1.92136e-14 0.00228629 -6.45053e-13 0.00228629)
(0.00228627 -0.00104623 4.14198e-14 0.00228627 -8.25933e-13 0.00228627)
(0.00228626 -0.00104623 3.5836e-14 0.00228626 -7.23717e-13 0.00228626)
(0.00228627 -0.00104623 -2.015e-14 0.00228627 -2.7089e-13 0.00228627)
(0.00228628 -0.00104624 -7.80696e-14 0.00228628 3.3798e-13 0.00228628)
(0.0022863 -0.00104626 -6.03078e-14 0.0022863 6.95393e-13 0.0022863)
(0.00228632 -0.00104628 5.25469e-15 0.00228632 6.80057e-13 0.00228632)
(0.00228633 -0.00104629 3.07063e-14 0.00228633 5.65763e-13 0.00228633)
(0.00228633 -0.00104629 1.77668e-14 0.00228633 1.12288e-13 0.00228633)
(0.00224593 -0.00102564 6.80124e-15 0.00224593 -3.27357e-13 0.00224593)
(0.00224591 -0.00102561 1.81366e-14 0.00224591 -6.54964e-13 0.00224591)
(0.00224589 -0.00102559 4.15127e-14 0.00224589 -8.19717e-13 0.00224589)
(0.00224588 -0.00102559 3.73477e-14 0.00224588 -7.04791e-13 0.00224588)
(0.00224589 -0.00102559 -1.80496e-14 0.00224589 -2.4727e-13 0.00224589)
(0.00224591 -0.00102561 -7.68134e-14 0.00224591 3.59866e-13 0.00224591)
(0.00224593 -0.00102563 -6.02482e-14 0.00224593 7.13789e-13 0.00224593)
(0.00224595 -0.00102565 5.08855e-15 0.00224595 6.88955e-13 0.00224595)
(0.00224595 -0.00102565 2.99836e-14 0.00224595 5.5178e-13 0.00224595)
(0.00224595 -0.00102565 1.62403e-14 0.00224595 8.89117e-14 0.00224595)
(0.00220582 -0.00100506 5.2667e-15 0.00220582 -3.48958e-13 0.00220582)
(0.0022058 -0.00100503 1.70876e-14 0.0022058 -6.62722e-13 0.0022058)
(0.00220578 -0.00100501 4.16279e-14 0.00220578 -8.10957e-13 0.00220578)
(0.00220578 -0.00100501 3.8875e-14 0.00220578 -6.83865e-13 0.00220578)
(0.00220579 -0.00100502 -1.59089e-14 0.00220579 -2.23178e-13 0.00220579)
(0.00220581 -0.00100503 -7.54856e-14 0.00220581 3.80169e-13 0.00220581)
(0.00220583 -0.00100505 -6.01516e-14 0.00220583 7.29317e-13 0.00220583)
(0.00220584 -0.00100507 4.8595e-15 0.00220584 6.94888e-13 0.00220584)
(0.00220585 -0.00100507 2.91654e-14 0.00220585 5.35834e-13 0.00220585)
(0.00220585 -0.00100507 1.46638e-14 0.00220585 6.54304e-14 0.00220585)
(0.002166 -0.000984684 3.74069e-15 0.002166 -3.68634e-13 0.002166)
(0.00216598 -0.000984651 1.60744e-14 0.00216598 -6.67945e-13 0.00216598)
(0.00216597 -0.000984639 4.17676e-14 0.00216597 -7.9963e-13 0.00216597)
(0.00216596 -0.000984633 4.04121e-14 0.00216596 -6.61211e-13 0.00216596)
(0.00216597 -0.000984639 -1.37405e-14 0.00216597 -1.9847e-13 0.00216597)
(0.00216599 -0.000984657 -7.40981e-14 0.00216599 3.99078e-13 0.00216599)
(0.00216601 -0.000984676 -6.00266e-14 0.00216601 7.42229e-13 0.00216601)
(0.00216603 -0.000984694 4.5657e-15 0.00216603 6.97987e-13 0.00216603)
(0.00216603 -0.0009847 2.82572e-14 0.00216603 5.18228e-13 0.00216603)
(0.00216603 -0.000984694 1.30437e-14 0.00216603 4.21243e-14 0.00216603)
(0.00212647 -0.000964629 2.22905e-15 0.00212647 -3.86624e-13 0.00212647)
(0.00212645 -0.000964596 1.51002e-14 0.00212645 -6.70986e-13 0.00212645)
(0.00212644 -0.000964584 4.19309e-14 0.00212644 -7.86262e-13 0.00212644)
(0.00212644 -0.000964588 4.19573e-14 0.00212644 -6.371e-13 0.00212644)
(0.00212645 -0.0009646 -1.15508e-14 0.00212645 -1.74135e-13 0.00212645)
(0.00212647 -0.000964612 -7.26642e-14 0.00212647 4.16431e-13 0.00212647)
(0.00212649 -0.00096463 -5.98784e-14 0.00212649 7.52094e-13 0.00212649)
(0.00212651 -0.000964648 4.21244e-15 0.00212651 6.9828e-13 0.00212651)
(0.00212651 -0.000964648 2.72668e-14 0.00212651 4.9918e-13 0.00212651)
(0.0021265 -0.000964642 1.1393e-14 0.0021265 1.91653e-14 0.0021265)
(0.00208726 -0.000945029 7.3947e-16 0.00208726 -4.02789e-13 0.00208726)
(0.00208725 -0.000945002 1.41707e-14 0.00208725 -6.71893e-13 0.00208725)
(0.00208723 -0.00094499 4.21226e-14 0.00208723 -7.70839e-13 0.00208723)
(0.00208723 -0.000944994 4.35063e-14 0.00208723 -6.1184e-13 0.00208723)
(0.00208724 -0.000945 -9.35184e-15 0.00208724 -1.49654e-13 0.00208724)
(0.00208726 -0.000945018 -7.11945e-14 0.00208726 4.31932e-13 0.00208726)
(0.00208728 -0.000945036 -5.97136e-14 0.00208728 7.59282e-13 0.00208728)
(0.00208729 -0.000945048 3.79881e-15 0.00208729 6.95929e-13 0.00208729)
(0.0020873 -0.000945054 2.62017e-14 0.0020873 4.78968e-13 0.0020873)
(0.00208729 -0.000945048 9.71734e-15 0.00208729 -3.20148e-15 0.00208729)
(0.00204837 -0.000922914 -7.2407e-16 0.00204837 -4.16641e-13 0.00204837)
(0.00204836 -0.00092289 1.32884e-14 0.00204836 -6.70469e-13 0.00204836)
(0.00204835 -0.000922878 4.23423e-14 0.00204835 -7.53891e-13 0.00204835)
(0.00204835 -0.000922882 4.5055e-14 0.00204835 -5.85647e-13 0.00204835)
(0.00204836 -0.000922894 -7.15194e-15 0.00204836 -1.25997e-13 0.00204836)
(0.00204838 -0.000922912 -6.96994e-14 0.00204838 4.45453e-13 0.00204838)
(0.0020484 -0.00092293 -5.95376e-14 0.0020484 7.63612e-13 0.0020484)
(0.00204841 -0.000922942 3.32812e-15 0.00204841 6.91092e-13 0.00204841)
(0.00204841 -0.000922942 2.50691e-14 0.00204841 4.5777e-13 0.00204841)
(0.00204841 -0.000922936 8.02598e-15 0.00204841 -2.47578e-14 0.00204841)
(0.00200983 -0.000902976 -2.15527e-15 0.00200983 -4.28867e-13 0.00200983)
(0.00200981 -0.000902952 1.2456e-14 0.00200981 -6.67332e-13 0.00200981)
(0.0020098 -0.00090294 4.25901e-14 0.0020098 -7.35012e-13 0.0020098)
(0.00200981 -0.000902946 4.66002e-14 0.00200981 -5.58798e-13 0.00200981)
(0.00200982 -0.000902958 -4.95944e-15 0.00200982 -1.02587e-13 0.00200982)
(0.00200984 -0.000902976 -6.81884e-14 0.00200984 4.57041e-13 0.00200984)
(0.00200985 -0.000902988 -5.93546e-14 0.00200985 7.65043e-13 0.00200985)
(0.00200987 -0.000903004 2.80334e-15 0.00200987 6.83885e-13 0.00200987)
(0.00200987 -0.000903004 2.38771e-14 0.00200987 4.359e-13 0.00200987)