/*--------------------------------*- C++ -*----------------------------------*\
| =========                 |                                                 |
| \\      /  F ield         | OpenFOAM: The Open Source CFD Toolbox           |
|  \\    /   O peration     | Version:  2.3.0                                 |
|   \\  /    A nd           | Web:      www.OpenFOAM.org                      |
|    \\/     M anipulation  |                                                 |
\*---------------------------------------------------------------------------*/
FoamFile
{
    version     2.0;
    format      ascii;
    class       volVectorField;
    location    "400";
    object      U;
}
// * * * * * * * * * * * * * * * * * * * * * * * * * * * * * * * * * * * * * //

dimensions      [0 1 -1 0 0 0 0];

internalField   nonuniform List<vector> 
17000
(
(0.575316 -1.40034e-09 9.86802e-12)
(0.575316 1.35419e-09 8.05843e-12)
(0.575315 2.32475e-09 -2.91054e-11)
(0.575315 1.74957e-09 -7.88053e-11)
(0.575314 6.19724e-10 -7.15648e-11)
(0.575314 -2.75108e-10 1.31894e-11)
(0.575314 -7.34631e-10 1.12341e-10)
(0.575315 -8.80868e-10 9.84393e-11)
(0.575315 -8.09422e-10 8.7354e-12)
(0.575315 -1.94682e-09 1.78949e-11)
(0.680498 -3.5987e-09 1.03147e-11)
(0.680498 3.00941e-09 2.99952e-14)
(0.680498 5.87382e-09 -4.17789e-11)
(0.680497 4.60572e-09 -9.43286e-11)
(0.680496 1.62912e-09 -8.45113e-11)
(0.680496 -7.63303e-10 7.16973e-12)
(0.680496 -1.92591e-09 1.1046e-10)
(0.680497 -2.22609e-09 1.02607e-10)
(0.680497 -1.97828e-09 2.70009e-11)
(0.680497 -4.62402e-09 2.11528e-11)
(0.736121 -5.85517e-09 1.03536e-11)
(0.736121 4.49228e-09 -6.68787e-12)
(0.73612 9.46097e-09 -5.05409e-11)
(0.736119 7.5714e-09 -1.02503e-10)
(0.736119 2.65394e-09 -9.09456e-11)
(0.736119 -1.3189e-09 1.92294e-12)
(0.736119 -3.17094e-09 1.03766e-10)
(0.73612 -3.56275e-09 1.00863e-10)
(0.73612 -3.0886e-09 4.02258e-11)
(0.73612 -7.18002e-09 2.38925e-11)
(0.773515 -7.97596e-09 1.03465e-11)
(0.773515 5.80285e-09 -1.18934e-11)
(0.773514 1.2892e-08 -5.69586e-11)
(0.773514 1.04088e-08 -1.07649e-10)
(0.773513 3.57068e-09 -9.48537e-11)
(0.773513 -1.93633e-09 -2.2318e-12)
(0.773513 -4.40541e-09 9.74482e-11)
(0.773514 -4.81681e-09 9.83446e-11)
(0.773514 -4.08048e-09 4.98213e-11)
(0.773514 -9.45621e-09 2.62965e-11)
(0.801573 -9.86299e-09 1.03201e-11)
(0.801573 6.93011e-09 -1.58465e-11)
(0.801572 1.60035e-08 -6.16776e-11)
(0.801572 1.29852e-08 -1.11022e-10)
(0.801571 4.35024e-09 -9.73833e-11)
(0.801572 -2.57579e-09 -5.49006e-12)
(0.801572 -5.56973e-09 9.22352e-11)
(0.801572 -5.93324e-09 9.60777e-11)
(0.801572 -4.91935e-09 5.6804e-11)
(0.801572 -1.14033e-08 2.83387e-11)
(0.824032 -1.14826e-08 1.02639e-11)
(0.824032 7.9257e-09 -1.88123e-11)
(0.824031 1.8766e-08 -6.50957e-11)
(0.824031 1.52533e-08 -1.13188e-10)
(0.824031 4.97629e-09 -9.90278e-11)
(0.824031 -3.22807e-09 -8.05877e-12)
(0.824031 -6.65073e-09 8.80809e-11)
(0.824031 -6.90512e-09 9.42572e-11)
(0.824031 -5.60626e-09 6.18794e-11)
(0.824031 -1.30421e-08 3.00105e-11)
(0.842779 -1.28281e-08 1.01672e-11)
(0.842779 8.83847e-09 -2.10015e-11)
(0.842779 2.11912e-08 -6.7484e-11)
(0.842778 1.72027e-08 -1.1446e-10)
(0.842778 5.44199e-09 -1.00044e-10)
(0.842778 -3.89356e-09 -1.00989e-11)
(0.842778 -7.6506e-09 8.47962e-11)
(0.842778 -7.73963e-09 9.28592e-11)
(0.842778 -6.15054e-09 6.5532e-11)
(0.842778 -1.44032e-08 3.13221e-11)
(0.85889 -1.39019e-08 1.00249e-11)
(0.858891 9.70281e-09 -2.2574e-11)
(0.85889 2.32996e-08 -6.9038e-11)
(0.85889 1.88356e-08 -1.15031e-10)
(0.858889 5.74449e-09 -1.00583e-10)
(0.85889 -4.57546e-09 -1.17301e-11)
(0.85889 -8.57526e-09 8.21904e-11)
(0.85889 -8.44623e-09 9.18041e-11)
(0.85889 -6.56154e-09 6.80994e-11)
(0.85889 -1.55107e-08 3.22956e-11)
(0.873036 -1.47108e-08 9.83681e-12)
(0.873036 1.05399e-08 -2.36505e-11)
(0.873035 2.51118e-08 -6.99042e-11)
(0.873035 2.01598e-08 -1.15034e-10)
(0.873035 5.88387e-09 -1.00742e-10)
(0.873035 -5.2766e-09 -1.30421e-11)
(0.873035 -9.43043e-09 8.01011e-11)
(0.873035 -9.03361e-09 9.10051e-11)
(0.873035 -6.84745e-09 6.98227e-11)
(0.873035 -1.63824e-08 3.29595e-11)
(0.885657 -1.5264e-08 9.60668e-12)
(0.885657 1.13619e-08 -2.43233e-11)
(0.885657 2.66464e-08 -7.01962e-11)
(0.885656 2.11865e-08 -1.14564e-10)
(0.885656 5.86289e-09 -1.00591e-10)
(0.885656 -5.99852e-09 -1.41032e-11)
(0.885657 -1.02208e-08 7.83967e-11)
(0.885657 -9.50936e-09 9.03838e-11)
(0.885657 -7.01589e-09 7.08774e-11)
(0.885657 -1.7032e-08 3.33444e-11)
(0.897063 -1.55728e-08 9.34081e-12)
(0.897063 1.21748e-08 -2.4663e-11)
(0.897063 2.79207e-08 -7.00041e-11)
(0.897062 2.19286e-08 -1.13696e-10)
(0.897062 5.68663e-09 -1.00181e-10)
(0.897063 -6.74126e-09 -1.49666e-11)
(0.897063 -1.09498e-08 7.69729e-11)
(0.897063 -9.88025e-09 8.98732e-11)
(0.897063 -7.07434e-09 7.13942e-11)
(0.897063 -1.74718e-08 3.34815e-11)
(0.907476 -1.56501e-08 9.04723e-12)
(0.907476 1.29802e-08 -2.47246e-11)
(0.907476 2.89506e-08 -6.94004e-11)
(0.907476 2.24007e-08 -1.12488e-10)
(0.907476 5.36213e-09 -9.95504e-11)
(0.907476 -7.50343e-09 -1.56744e-11)
(0.907476 -1.16201e-08 7.5747e-11)
(0.907476 -1.01524e-08 8.94186e-11)
(0.907476 -7.03039e-09 7.14723e-11)
(0.907476 -1.77136e-08 3.34008e-11)
(0.917063 -1.551e-08 8.73496e-12)
(0.917063 1.37773e-08 -2.4551e-11)
(0.917063 2.9751e-08 -6.84453e-11)
(0.917062 2.26186e-08 -1.10987e-10)
(0.917063 4.89812e-09 -9.87332e-11)
(0.917063 -8.28234e-09 -1.62611e-11)
(0.917063 -1.22333e-08 7.46538e-11)
(0.917063 -1.03316e-08 8.89759e-11)
(0.917063 -6.89187e-09 7.11884e-11)
(0.917063 -1.7769e-08 3.3131e-11)
(0.92595 -1.51676e-08 8.41347e-12)
(0.92595 1.45633e-08 -2.4176e-11)
(0.92595 3.0336e-08 -6.71885e-11)
(0.92595 2.25987e-08 -1.09235e-10)
(0.92595 4.30458e-09 -9.7757e-11)
(0.92595 -9.07431e-09 -1.67548e-11)
(0.92595 -1.27904e-08 7.3642e-11)
(0.92595 -1.04233e-08 8.85101e-11)
(0.92595 -6.66681e-09 7.06028e-11)
(0.92595 -1.765e-08 3.26987e-11)
(0.934237 -1.46385e-08 8.09228e-12)
(0.934237 1.53347e-08 -2.36266e-11)
(0.934237 3.07191e-08 -6.56724e-11)
(0.934237 2.2358e-08 -1.07266e-10)
(0.934237 3.59254e-09 -9.66463e-11)
(0.934237 -9.87487e-09 -1.71792e-11)
(0.934237 -1.32922e-08 7.26709e-11)
(0.934237 -1.04328e-08 8.79944e-11)
(0.934237 -6.36346e-09 6.97638e-11)
(0.934237 -1.73691e-08 3.21285e-11)
(0.942004 -1.39389e-08 7.78068e-12)
(0.942003 1.60872e-08 -2.29245e-11)
(0.942003 3.09137e-08 -6.39331e-11)
(0.942003 2.1914e-08 -1.05112e-10)
(0.942004 2.77376e-09 -9.54226e-11)
(0.942004 -1.06791e-08 -1.75542e-11)
(0.942004 -1.3739e-08 7.17087e-11)
(0.942004 -1.03654e-08 8.74082e-11)
(0.942004 -5.99025e-09 6.8711e-11)
(0.942004 -1.69393e-08 3.14434e-11)
(0.949314 -1.30852e-08 7.48753e-12)
(0.949313 1.68167e-08 -2.20874e-11)
(0.949313 3.09328e-08 -6.20017e-11)
(0.949313 2.12841e-08 -1.02801e-10)
(0.949314 1.86047e-09 -9.41057e-11)
(0.949314 -1.14816e-08 -1.78969e-11)
(0.949314 -1.41313e-08 7.07305e-11)
(0.949314 -1.02266e-08 8.67365e-11)
(0.949314 -5.5557e-09 6.7477e-11)
(0.949314 -1.63737e-08 3.0664e-11)
(0.956219 -1.20936e-08 7.22108e-12)
(0.956219 1.75191e-08 -2.11298e-11)
(0.956219 3.07892e-08 -5.99055e-11)
(0.956219 2.04861e-08 -1.00355e-10)
(0.95622 8.65142e-10 -9.27136e-11)
(0.95622 -1.22771e-08 -1.8222e-11)
(0.95622 -1.44697e-08 6.97171e-11)
(0.95622 -1.00219e-08 8.59686e-11)
(0.95622 -5.06836e-09 6.60897e-11)
(0.95622 -1.5686e-08 2.98096e-11)
(0.962765 -1.09803e-08 6.98891e-12)
(0.962765 1.81909e-08 -2.00637e-11)
(0.962765 3.04959e-08 -5.76684e-11)
(0.962765 1.95377e-08 -9.77998e-11)
(0.962765 -1.99672e-10 -9.12627e-11)
(0.962766 -1.30603e-08 -1.85422e-11)
(0.962766 -1.47548e-08 6.86536e-11)
(0.962766 -9.75684e-09 8.50979e-11)
(0.962766 -4.53672e-09 6.45727e-11)
(0.962765 -1.48898e-08 2.88975e-11)
(0.968988 -9.7613e-09 6.79786e-12)
(0.968987 1.88287e-08 -1.88997e-11)
(0.968987 3.00656e-08 -5.53116e-11)
(0.968988 1.84564e-08 -9.51541e-11)
(0.968988 -1.32155e-09 -8.97683e-11)
(0.968988 -1.38262e-08 -1.88684e-11)
(0.968988 -1.49877e-08 6.75291e-11)
(0.968988 -9.43735e-09 8.41207e-11)
(0.968988 -3.96914e-09 6.29468e-11)
(0.968988 -1.39987e-08 2.79436e-11)
(0.974918 -8.45194e-09 6.65395e-12)
(0.974917 1.94301e-08 -1.76464e-11)
(0.974917 2.95111e-08 -5.28541e-11)
(0.974918 1.72593e-08 -9.24371e-11)
(0.974918 -2.48831e-09 -8.82444e-11)
(0.974918 -1.457e-08 -1.921e-11)
(0.974918 -1.51697e-08 6.63357e-11)
(0.974918 -9.06931e-09 8.30358e-11)
(0.974918 -3.37377e-09 6.12304e-11)
(0.974918 -1.3026e-08 2.69623e-11)
(0.980582 -7.06713e-09 6.56243e-12)
(0.980582 1.9993e-08 -1.63117e-11)
(0.980582 2.8845e-08 -5.03129e-11)
(0.980582 1.59634e-08 -8.96662e-11)
(0.980582 -3.68819e-09 -8.6704e-11)
(0.980582 -1.52873e-08 -1.95751e-11)
(0.980582 -1.53024e-08 6.5068e-11)
(0.980582 -8.65876e-09 8.18442e-11)
(0.980582 -2.7585e-09 5.94398e-11)
(0.980582 -1.1985e-08 2.59666e-11)
(0.986003 -5.62109e-09 6.52772e-12)
(0.986003 2.05158e-08 -1.49027e-11)
(0.986003 2.80797e-08 -4.77034e-11)
(0.986003 1.45849e-08 -8.68573e-11)
(0.986004 -4.90988e-09 -8.51591e-11)
(0.986004 -1.59743e-08 -1.99706e-11)
(0.986004 -1.53879e-08 6.37228e-11)
(0.986004 -8.21176e-09 8.05487e-11)
(0.986004 -2.13086e-09 5.75898e-11)
(0.986004 -1.08883e-08 2.49682e-11)
(0.991202 -4.12735e-09 6.55345e-12)
(0.991201 2.09976e-08 -1.34257e-11)
(0.991201 2.72277e-08 -4.50397e-11)
(0.991202 1.31397e-08 -8.40251e-11)
(0.991202 -6.14266e-09 -8.36207e-11)
(0.991202 -1.66275e-08 -2.04022e-11)
(0.991202 -1.54284e-08 6.22985e-11)
(0.991202 -7.73443e-09 7.91534e-11)
(0.991202 -1.49801e-09 5.56939e-11)
(0.991202 -9.74801e-09 2.39778e-11)
(0.996194 -2.59869e-09 6.64249e-12)
(0.996194 2.14379e-08 -1.18867e-11)
(0.996194 2.63008e-08 -4.23343e-11)
(0.996194 1.16429e-08 -8.11832e-11)
(0.996195 -7.37643e-09 -8.20987e-11)
(0.996195 -1.72441e-08 -2.08746e-11)
(0.996195 -1.54267e-08 6.07953e-11)
(0.996195 -7.23282e-09 7.76634e-11)
(0.996195 -8.66679e-10 5.37644e-11)
(0.996195 -8.5757e-09 2.30047e-11)
(1.001 -1.04705e-09 6.79694e-12)
(1.001 2.18368e-08 -1.02914e-11)
(1.001 2.53109e-08 -3.95992e-11)
(1.001 1.0109e-08 -7.8344e-11)
(1.001 -8.60176e-09 -8.06023e-11)
(1.001 -1.78217e-08 -2.13916e-11)
(1.001 -1.53856e-08 5.92144e-11)
(1.001 -6.71295e-09 7.60849e-11)
(1.001 -2.43137e-10 5.18126e-11)
(1.001 -7.38224e-09 2.20573e-11)
(1.00562 5.1641e-10 7.0182e-12)
(1.00562 2.21946e-08 -8.64517e-12)
(1.00562 2.42692e-08 -3.68449e-11)
(1.00562 8.5517e-09 -7.55188e-11)
(1.00562 -9.80995e-09 -7.91396e-11)
(1.00562 -1.83583e-08 -2.19563e-11)
(1.00562 -1.53082e-08 5.75581e-11)
(1.00562 -6.18067e-09 7.44247e-11)
(1.00562 3.66845e-10 4.98489e-11)
(1.00562 -6.17775e-09 2.11431e-11)
(1.01008 2.08137e-09 7.30699e-12)
(1.01008 2.25122e-08 -6.9532e-12)
(1.01008 2.31865e-08 -3.40815e-11)
(1.01008 6.98382e-09 -7.27182e-11)
(1.01008 -1.0993e-08 -7.77179e-11)
(1.01008 -1.88525e-08 -2.25706e-11)
(1.01008 -1.51978e-08 5.58296e-11)
(1.01008 -5.64167e-09 7.26901e-11)
(1.01008 9.58009e-10 4.78831e-11)
(1.01008 -4.97164e-09 2.02684e-11)
(1.01439 3.63834e-09 7.66336e-12)
(1.01438 2.27906e-08 -5.22062e-12)
(1.01438 2.20733e-08 -3.1318e-11)
(1.01439 5.41744e-09 -6.99515e-11)
(1.01439 -1.21437e-08 -7.63438e-11)
(1.01439 -1.93034e-08 -2.32361e-11)
(1.01439 -1.50579e-08 5.40329e-11)
(1.01439 -5.10142e-09 7.08887e-11)
(1.01439 1.52562e-09 4.59239e-11)
(1.01439 -3.77249e-09 1.94388e-11)
(1.01854 5.17861e-09 8.08681e-12)
(1.01854 2.30311e-08 -3.45244e-12)
(1.01854 2.09394e-08 -2.85628e-11)
(1.01854 3.86372e-09 -6.72275e-11)
(1.01854 -1.32554e-08 -7.50228e-11)
(1.01854 -1.97104e-08 -2.39532e-11)
(1.01854 -1.48918e-08 5.21725e-11)
(1.01854 -4.56514e-09 6.90285e-11)
(1.01854 2.06549e-09 4.39795e-11)
(1.01854 -2.58817e-09 1.86591e-11)
(1.02257 6.69428e-09 8.57622e-12)
(1.02257 2.32352e-08 -1.65361e-12)
(1.02257 1.97942e-08 -2.58236e-11)
(1.02257 2.33297e-09 -6.45537e-11)
(1.02257 -1.43224e-08 -7.37599e-11)
(1.02257 -2.00732e-08 -2.47222e-11)
(1.02257 -1.47031e-08 5.02535e-11)
(1.02257 -4.03772e-09 6.71176e-11)
(1.02257 2.57395e-09 4.20575e-11)
(1.02257 -1.42572e-09 1.79331e-11)
(1.02646 8.17817e-09 9.13e-12)
(1.02646 2.34044e-08 1.70983e-13)
(1.02646 1.86461e-08 -2.31078e-11)
(1.02646 8.34588e-10 -6.19372e-11)
(1.02646 -1.53396e-08 -7.25589e-11)
(1.02646 -2.03921e-08 -2.55425e-11)
(1.02646 -1.44953e-08 4.82811e-11)
(1.02646 -3.52374e-09 6.51639e-11)
(1.02646 3.04787e-09 4.01646e-11)
(1.02646 -2.91463e-10 1.7264e-11)
(1.03023 9.62383e-09 9.74607e-12)
(1.03023 2.35405e-08 2.01651e-12)
(1.03023 1.75032e-08 -2.04217e-11)
(1.03023 -6.2289e-10 -5.93841e-11)
(1.03023 -1.63024e-08 -7.14234e-11)
(1.03023 -2.06674e-08 -2.64128e-11)
(1.03023 -1.42718e-08 4.62613e-11)
(1.03023 -3.02739e-09 6.31755e-11)
(1.03023 3.48465e-09 3.8307e-11)
(1.03023 8.09036e-10 1.66543e-11)
(1.03388 1.10255e-08 1.04219e-11)
(1.03388 2.3645e-08 3.87817e-12)
(1.03388 1.6373e-08 -1.77716e-11)
(1.03388 -2.03182e-09 -5.68998e-11)
(1.03388 -1.72072e-08 -7.03558e-11)
(1.03388 -2.08997e-08 -2.73317e-11)
(1.03388 -1.40358e-08 4.41999e-11)
(1.03388 -2.55249e-09 6.11603e-11)
(1.03388 3.88217e-09 3.64903e-11)
(1.03388 1.87091e-09 1.61057e-11)
(1.03742 1.2378e-08 1.11546e-11)
(1.03742 2.37197e-08 5.75127e-12)
(1.03742 1.52619e-08 -1.51628e-11)
(1.03742 -3.38541e-09 -5.44888e-11)
(1.03742 -1.80506e-08 -6.93582e-11)
(1.03742 -2.109e-08 -2.82971e-11)
(1.03742 -1.37904e-08 4.21032e-11)
(1.03742 -2.10244e-09 5.9126e-11)
(1.03742 4.23884e-09 3.47196e-11)
(1.03742 2.88998e-09 1.56194e-11)
(1.04085 1.36768e-08 1.19409e-11)
(1.04085 2.37661e-08 7.63113e-12)
(1.04085 1.41761e-08 -1.26004e-11)
(1.04085 -4.67772e-09 -5.21553e-11)
(1.04085 -1.883e-08 -6.84318e-11)
(1.04085 -2.12392e-08 -2.93065e-11)
(1.04085 -1.35385e-08 3.99773e-11)
(1.04085 -1.68022e-09 5.70802e-11)
(1.04085 4.55351e-09 3.29991e-11)
(1.04085 3.86269e-09 1.5196e-11)
(1.04418 1.49179e-08 1.27773e-11)
(1.04418 2.37857e-08 9.5132e-12)
(1.04418 1.31208e-08 -1.0089e-11)
(1.04418 -5.9036e-09 -4.99023e-11)
(1.04418 -1.95435e-08 -6.75773e-11)
(1.04418 -2.13484e-08 -3.03571e-11)
(1.04418 -1.3283e-08 3.78285e-11)
(1.04418 -1.28838e-09 5.50301e-11)
(1.04418 4.82548e-09 3.13327e-11)
(1.04418 4.78608e-09 1.48355e-11)
(1.04741 1.60978e-08 1.36599e-11)
(1.04741 2.37798e-08 1.1393e-11)
(1.04741 1.21007e-08 -7.63268e-12)
(1.04741 -7.05871e-09 -4.77327e-11)
(1.04741 -2.01893e-08 -6.67948e-11)
(1.04741 -2.14188e-08 -3.14457e-11)
(1.04741 -1.30261e-08 3.56632e-11)
(1.04741 -9.29012e-10 5.29825e-11)
(1.04741 5.05449e-09 2.97238e-11)
(1.04741 5.65779e-09 1.45372e-11)
(1.05055 1.72134e-08 1.45848e-11)
(1.05055 2.37498e-08 1.32661e-11)
(1.05055 1.11197e-08 -5.23507e-12)
(1.05055 -8.13945e-09 -4.56484e-11)
(1.05055 -2.07663e-08 -6.60839e-11)
(1.05055 -2.14518e-08 -3.25688e-11)
(1.05055 -1.27702e-08 3.34877e-11)
(1.05055 -6.03796e-10 5.09442e-11)
(1.05055 5.24065e-09 2.81749e-11)
(1.05055 6.47594e-09 1.43003e-11)
(1.0536 1.82623e-08 1.55476e-11)
(1.0536 2.36965e-08 1.51284e-11)
(1.0536 1.01811e-08 -2.8994e-12)
(1.0536 -9.14293e-09 -4.36509e-11)
(1.0536 -2.12739e-08 -6.54436e-11)
(1.0536 -2.14485e-08 -3.37229e-11)
(1.0536 -1.25171e-08 3.13081e-11)
(1.0536 -3.13968e-10 4.89213e-11)
(1.0536 5.38443e-09 2.66884e-11)
(1.0536 7.23915e-09 1.41233e-11)
(1.05655 1.92423e-08 1.65441e-11)
(1.05655 2.36209e-08 1.69756e-11)
(1.05655 9.28767e-09 -6.28464e-13)
(1.05655 -1.00669e-08 -4.17411e-11)
(1.05655 -2.17117e-08 -6.48726e-11)
(1.05655 -2.14104e-08 -3.4904e-11)
(1.05655 -1.22684e-08 2.91304e-11)
(1.05655 -6.03374e-11 4.69198e-11)
(1.05655 5.48665e-09 2.52659e-11)
(1.05655 7.94649e-09 1.40044e-11)
(1.05943 2.01514e-08 1.75697e-11)
(1.05943 2.35235e-08 1.88039e-11)
(1.05943 8.44141e-09 1.57533e-12)
(1.05943 -1.09099e-08 -3.99193e-11)
(1.05943 -2.20798e-08 -6.43691e-11)
(1.05943 -2.13387e-08 -3.6108e-11)
(1.05943 -1.20255e-08 2.69607e-11)
(1.05943 1.56696e-10 4.49452e-11)
(1.05943 5.54841e-09 2.39086e-11)
(1.05943 8.59742e-09 1.39414e-11)
(1.06222 2.09883e-08 1.86199e-11)
(1.06222 2.3405e-08 2.06095e-11)
(1.06222 7.64385e-09 3.70998e-12)
(1.06222 -1.1671e-08 -3.81856e-11)
(1.06222 -2.23785e-08 -6.39308e-11)
(1.06222 -2.12346e-08 -3.73309e-11)
(1.06222 -1.17893e-08 2.48047e-11)
(1.06222 3.37131e-10 4.30025e-11)
(1.06222 5.57111e-09 2.26172e-11)
(1.06222 9.19178e-09 1.39317e-11)
(1.06492 2.17518e-08 1.96902e-11)
(1.06492 2.32655e-08 2.23887e-11)
(1.06492 6.89594e-09 5.77385e-12)
(1.06492 -1.23497e-08 -3.65393e-11)
(1.06492 -2.26087e-08 -6.35552e-11)
(1.06492 -2.10994e-08 -3.85683e-11)
(1.06492 -1.15607e-08 2.26679e-11)
(1.06492 4.81347e-10 4.10964e-11)
(1.06492 5.55637e-09 2.13922e-11)
(1.06492 9.72976e-09 1.39725e-11)
(1.06755 2.24411e-08 2.0776e-11)
(1.06755 2.31051e-08 2.41381e-11)
(1.06755 6.19815e-09 7.76567e-12)
(1.06755 -1.29461e-08 -3.49796e-11)
(1.06755 -2.27712e-08 -6.32396e-11)
(1.06755 -2.09343e-08 -3.9816e-11)
(1.06755 -1.13401e-08 2.05557e-11)
(1.06755 5.9008e-10 3.92313e-11)
(1.06755 5.50601e-09 2.02333e-11)
(1.06755 1.02118e-08 1.40608e-11)
(1.0701 2.30556e-08 2.18728e-11)
(1.0701 2.29238e-08 2.58546e-11)
(1.0701 5.55042e-09 9.68451e-12)
(1.0701 -1.3461e-08 -3.3505e-11)
(1.0701 -2.28672e-08 -6.29807e-11)
(1.0701 -2.07402e-08 -4.10697e-11)
(1.0701 -1.11277e-08 1.84731e-11)
(1.0701 6.64404e-10 3.74111e-11)
(1.0701 5.42206e-09 1.91401e-11)
(1.0701 1.06388e-08 1.41933e-11)
(1.07258 2.35951e-08 2.2976e-11)
(1.07258 2.27214e-08 2.75351e-11)
(1.07258 4.9523e-09 1.15298e-11)
(1.07258 -1.38954e-08 -3.21139e-11)
(1.07258 -2.28983e-08 -6.27754e-11)
(1.07258 -2.05185e-08 -4.23251e-11)
(1.07258 -1.09234e-08 1.6425e-11)
(1.07258 7.05702e-10 3.56392e-11)
(1.07258 5.30669e-09 1.81117e-11)
(1.07258 1.10115e-08 1.43665e-11)
(1.07498 2.40594e-08 2.40812e-11)
(1.07498 2.24975e-08 2.91768e-11)
(1.07498 4.40291e-09 1.33012e-11)
(1.07498 -1.42508e-08 -3.08043e-11)
(1.07498 -2.28662e-08 -6.26201e-11)
(1.07498 -2.02699e-08 -4.35779e-11)
(1.07498 -1.0727e-08 1.44158e-11)
(1.07498 7.15646e-10 3.39188e-11)
(1.07498 5.1622e-09 1.71469e-11)
(1.07498 1.13313e-08 1.45768e-11)
(1.07731 2.44488e-08 2.51843e-11)
(1.07731 2.22517e-08 3.07773e-11)
(1.07731 3.90104e-09 1.49988e-11)
(1.07731 -1.45292e-08 -2.95738e-11)
(1.07731 -2.27726e-08 -6.25112e-11)
(1.07731 -1.99956e-08 -4.48239e-11)
(1.07731 -1.05379e-08 1.24499e-11)
(1.07731 6.96164e-10 3.22525e-11)
(1.07731 4.99101e-09 1.62442e-11)
(1.07731 1.15996e-08 1.48207e-11)
(1.07956 2.47637e-08 2.62811e-11)
(1.07956 2.19834e-08 3.23342e-11)
(1.07956 3.44515e-09 1.6623e-11)
(1.07956 -1.47327e-08 -2.842e-11)
(1.07956 -2.26198e-08 -6.2445e-11)
(1.07956 -1.96964e-08 -4.60592e-11)
(1.07956 -1.03553e-08 1.05312e-11)
(1.07956 6.49416e-10 3.06427e-11)
(1.07956 4.79558e-09 1.54018e-11)
(1.07956 1.18178e-08 1.50942e-11)
(1.08175 2.50046e-08 2.73677e-11)
(1.08175 2.16921e-08 3.38455e-11)
(1.08175 3.03342e-09 1.81741e-11)
(1.08175 -1.4864e-08 -2.734e-11)
(1.08175 -2.241e-08 -6.24176e-11)
(1.08175 -1.93733e-08 -4.72798e-11)
(1.08175 -1.01784e-08 8.66317e-12)
(1.08175 5.77764e-10 2.90913e-11)
(1.08175 4.57848e-09 1.46177e-11)
(1.08175 1.19876e-08 1.53937e-11)
(1.08386 2.51725e-08 2.84402e-11)
(1.08386 2.13772e-08 3.53093e-11)
(1.08386 2.66381e-09 1.96532e-11)
(1.08386 -1.49259e-08 -2.6331e-11)
(1.08386 -2.21455e-08 -6.24252e-11)
(1.08386 -1.9027e-08 -4.84819e-11)
(1.08386 -1.00062e-08 6.84924e-12)
(1.08386 4.83746e-10 2.76e-11)
(1.08386 4.3423e-09 1.38896e-11)
(1.08386 1.21109e-08 1.57152e-11)
(1.08591 2.52682e-08 2.94952e-11)
(1.08591 2.10381e-08 3.67242e-11)
(1.08591 2.33412e-09 2.10611e-11)
(1.08591 -1.49214e-08 -2.539e-11)
(1.08591 -2.18289e-08 -6.2464e-11)
(1.08591 -1.86585e-08 -4.9662e-11)
(1.08591 -9.83735e-09 5.09232e-12)
(1.08591 3.70044e-10 2.61699e-11)
(1.08591 4.08964e-09 1.32152e-11)
(1.08591 1.21894e-08 1.60552e-11)
(1.08789 2.52929e-08 3.05293e-11)
(1.08789 2.06743e-08 3.80886e-11)
(1.08789 2.04196e-09 2.23992e-11)
(1.08789 -1.4854e-08 -2.45136e-11)
(1.08789 -2.1463e-08 -6.25302e-11)
(1.08789 -1.82685e-08 -5.08168e-11)
(1.08789 -9.67065e-09 3.39503e-12)
(1.08789 2.39459e-10 2.4802e-11)
(1.08789 3.82312e-09 1.25919e-11)
(1.08789 1.2225e-08 1.64099e-11)
(1.0898 2.52479e-08 3.15396e-11)
(1.0898 2.02853e-08 3.94017e-11)
(1.0898 1.78489e-09 2.36688e-11)
(1.0898 -1.47271e-08 -2.36987e-11)
(1.0898 -2.10505e-08 -6.26201e-11)
(1.0898 -1.78579e-08 -5.1943e-11)
(1.0898 -9.50468e-09 1.75964e-12)
(1.0898 9.48777e-11 2.34969e-11)
(1.0898 3.54535e-09 1.2017e-11)
(1.0898 1.22196e-08 1.67757e-11)
(1.09164 2.51346e-08 3.2523e-11)
(1.09164 1.9871e-08 4.06624e-11)
(1.09164 1.56039e-09 2.48715e-11)
(1.09164 -1.45443e-08 -2.29419e-11)
(1.09164 -2.05944e-08 -6.27301e-11)
(1.09164 -1.74276e-08 -5.30379e-11)
(1.09164 -9.33798e-09 1.88071e-13)
(1.09164 -6.07486e-11 2.22548e-11)
(1.09164 3.25893e-09 1.14877e-11)
(1.09164 1.2175e-08 1.71492e-11)
(1.09341 2.49545e-08 3.34772e-11)
(1.09341 1.94311e-08 4.18703e-11)
(1.09341 1.36592e-09 2.60091e-11)
(1.09341 -1.43095e-08 -2.224e-11)
(1.09341 -2.00976e-08 -6.28567e-11)
(1.09341 -1.69783e-08 -5.40987e-11)
(1.09341 -9.16908e-09 -1.31808e-12)
(1.09341 -2.24437e-10 2.10757e-11)
(1.09341 2.96639e-09 1.10012e-11)
(1.09341 1.2093e-08 1.75271e-11)
(1.09512 2.47092e-08 3.43998e-11)
(1.09512 1.89656e-08 4.30249e-11)
(1.09512 1.19899e-09 2.70834e-11)
(1.09512 -1.40266e-08 -2.15896e-11)
(1.09512 -1.95634e-08 -6.29965e-11)
(1.09512 -1.6511e-08 -5.51232e-11)
(1.09512 -8.99644e-09 -2.75758e-12)
(1.09512 -3.932e-10 1.99593e-11)
(1.09512 2.67025e-09 1.05547e-11)
(1.09512 1.19754e-08 1.79062e-11)
(1.09677 2.44003e-08 3.52889e-11)
(1.09677 1.84749e-08 4.41261e-11)
(1.09677 1.05714e-09 2.80963e-11)
(1.09677 -1.36994e-08 -2.09876e-11)
(1.09677 -1.89948e-08 -6.31464e-11)
(1.09677 -1.60264e-08 -5.61093e-11)
(1.09677 -8.81855e-09 -4.12952e-12)
(1.09677 -5.64068e-10 1.89052e-11)
(1.09677 2.37294e-09 1.01454e-11)
(1.09677 1.18237e-08 1.82836e-11)
(1.09834 2.40296e-08 3.61428e-11)
(1.09834 1.79594e-08 4.51739e-11)
(1.09834 9.3804e-10 2.90498e-11)
(1.09834 -1.3332e-08 -2.04307e-11)
(1.09834 -1.83951e-08 -6.33034e-11)
(1.09834 -1.55256e-08 -5.70551e-11)
(1.09834 -8.63392e-09 -5.43332e-12)
(1.09834 -7.34124e-10 1.79124e-11)
(1.09834 2.07682e-09 9.7705e-12)
(1.09834 1.16393e-08 1.86567e-11)
(1.09986 2.35987e-08 3.696e-11)
(1.09986 1.74198e-08 4.61685e-11)
(1.09986 8.39453e-10 2.99459e-11)
(1.09986 -1.29283e-08 -1.99158e-11)
(1.09986 -1.77674e-08 -6.34648e-11)
(1.09986 -1.50094e-08 -5.79592e-11)
(1.09986 -8.44111e-09 -6.66875e-12)
(1.09986 -9.00521e-10 1.69801e-11)
(1.09986 1.78418e-09 9.42725e-12)
(1.09986 1.14237e-08 1.90228e-11)
(1.10131 2.31093e-08 3.77394e-11)
(1.10131 1.68572e-08 4.71104e-11)
(1.10131 7.59305e-10 3.07868e-11)
(1.10131 -1.24922e-08 -1.94401e-11)
(1.10131 -1.71151e-08 -6.3628e-11)
(1.10131 -1.44787e-08 -5.88204e-11)
(1.10131 -8.23872e-09 -7.83586e-12)
(1.10131 -1.06051e-09 1.61068e-11)
(1.10131 1.4972e-09 9.11304e-12)
(1.10131 1.11778e-08 1.93797e-11)
(1.10269 2.25633e-08 3.84802e-11)
(1.10269 1.62728e-08 4.80001e-11)
(1.10269 6.9569e-10 3.15745e-11)
(1.10269 -1.20276e-08 -1.90006e-11)
(1.10269 -1.64412e-08 -6.37908e-11)
(1.10269 -1.39346e-08 -5.96377e-11)
(1.10269 -8.02543e-09 -8.93503e-12)
(1.10269 -1.21149e-09 1.52914e-11)
(1.10269 1.21795e-09 8.82537e-12)
(1.10269 1.09026e-08 1.97255e-11)
(1.10401 2.19622e-08 3.91817e-11)
(1.10401 1.56681e-08 4.88383e-11)
(1.10401 6.46886e-10 3.23112e-11)
(1.10401 -1.15381e-08 -1.85947e-11)
(1.10401 -1.57489e-08 -6.39512e-11)
(1.10401 -1.33779e-08 -6.04107e-11)
(1.10401 -7.80003e-09 -9.96692e-12)
(1.10401 -1.35097e-09 1.45321e-11)
(1.10401 9.48375e-10 8.56186e-12)
(1.10401 1.05989e-08 2.00583e-11)
(1.10526 2.13077e-08 3.98436e-11)
(1.10526 1.50448e-08 4.9626e-11)
(1.10526 6.11363e-10 3.29989e-11)
(1.10526 -1.10275e-08 -1.82198e-11)
(1.10526 -1.50413e-08 -6.41074e-11)
(1.10526 -1.28097e-08 -6.11388e-11)
(1.10526 -7.56139e-09 -1.09324e-11)
(1.10526 -1.47667e-09 1.38274e-11)
(1.10526 6.90268e-10 8.32028e-12)
(1.10526 1.02672e-08 2.03768e-11)
(1.10646 2.06016e-08 4.04658e-11)
(1.10646 1.4405e-08 5.03641e-11)
(1.10646 5.8779e-10 3.36395e-11)
(1.10646 -1.04991e-08 -1.78738e-11)
(1.10646 -1.43213e-08 -6.42578e-11)
(1.10646 -1.2231e-08 -6.18222e-11)
(1.10646 -7.30854e-09 -1.18328e-11)
(1.10646 -1.58651e-09 1.31752e-11)
(1.10646 4.4527e-10 8.09858e-12)
(1.10646 9.90782e-09 2.06796e-11)
(1.10758 1.98454e-08 4.10484e-11)
(1.10758 1.37508e-08 5.10538e-11)
(1.10759 5.75027e-10 3.42352e-11)
(1.10758 -9.9563e-09 -1.75543e-11)
(1.10758 -1.35918e-08 -6.44012e-11)
(1.10758 -1.16426e-08 -6.24608e-11)
(1.10758 -7.04062e-09 -1.26694e-11)
(1.10758 -1.6786e-09 1.25737e-11)
(1.10758 2.14845e-10 7.89487e-12)
(1.10758 9.521e-09 2.09658e-11)
(1.10865 1.90408e-08 4.15917e-11)
(1.10865 1.30845e-08 5.16961e-11)
(1.10865 5.72122e-10 3.47878e-11)
(1.10865 -9.40204e-09 -1.72595e-11)
(1.10865 -1.28553e-08 -6.45364e-11)
(1.10865 -1.10456e-08 -6.30552e-11)
(1.10865 -6.75693e-09 -1.34438e-11)
(1.10865 -1.75134e-09 1.20208e-11)
(1.10865 2.61109e-13 7.70745e-12)
(1.10865 9.10681e-09 2.12346e-11)
(1.10965 1.81894e-08 4.20962e-11)
(1.10965 1.24085e-08 5.22924e-11)
(1.10965 5.78292e-10 3.52991e-11)
(1.10965 -8.83917e-09 -1.69876e-11)
(1.10965 -1.21144e-08 -6.46628e-11)
(1.10965 -1.04408e-08 -6.3606e-11)
(1.10965 -6.45691e-09 -1.41579e-11)
(1.10965 -1.80338e-09 1.15145e-11)
(1.10965 -1.97425e-10 7.5348e-12)
(1.10965 8.66523e-09 2.14854e-11)
(1.11059 1.72929e-08 4.25627e-11)
(1.1106 1.17253e-08 5.28438e-11)
(1.1106 5.92908e-10 3.5771e-11)
(1.1106 -8.27025e-09 -1.6737e-11)
(1.11059 -1.13712e-08 -6.47798e-11)
(1.11059 -9.82916e-09 -6.41139e-11)
(1.11059 -6.1402e-09 -1.48137e-11)
(1.11059 -1.83363e-09 1.10525e-11)
(1.11059 -3.77389e-10 7.37559e-12)
(1.11059 8.19618e-09 2.1718e-11)
(1.11147 1.6353e-08 4.29917e-11)
(1.11147 1.10373e-08 5.33518e-11)
(1.11147 6.15472e-10 3.6205e-11)
(1.11147 -7.69756e-09 -1.65063e-11)
(1.11147 -1.06279e-08 -6.48868e-11)
(1.11147 -9.21152e-09 -6.45801e-11)
(1.11147 -5.8066e-09 -1.54131e-11)
(1.11147 -1.84135e-09 1.06327e-11)
(1.11147 -5.39051e-10 7.22868e-12)
(1.11147 7.69958e-09 2.19322e-11)
(1.11229 1.53715e-08 4.33844e-11)
(1.11229 1.03468e-08 5.38177e-11)
(1.11229 6.45587e-10 3.66026e-11)
(1.11229 -7.1231e-09 -1.62944e-11)
(1.11229 -9.88608e-09 -6.49838e-11)
(1.11229 -8.58864e-09 -6.50055e-11)
(1.11229 -5.45608e-09 -1.59583e-11)
(1.11229 -1.82608e-09 1.02529e-11)
(1.11229 -6.82097e-10 7.09309e-12)
(1.11229 7.17542e-09 2.21281e-11)
(1.11305 1.43504e-08 4.37417e-11)
(1.11305 9.65611e-09 5.42428e-11)
(1.11305 6.82937e-10 3.69655e-11)
(1.11305 -6.54858e-09 -1.61001e-11)
(1.11305 -9.14731e-09 -6.50706e-11)
(1.11305 -7.96126e-09 -6.53915e-11)
(1.11305 -5.08883e-09 -1.64517e-11)
(1.11305 -1.78771e-09 9.91106e-12)
(1.11305 -8.06489e-10 6.96803e-12)
(1.11305 6.62379e-09 2.23059e-11)
(1.11375 1.32918e-08 4.40645e-11)
(1.11375 8.96724e-09 5.46283e-11)
(1.11375 7.27256e-10 3.72948e-11)
(1.11375 -5.97539e-09 -1.59225e-11)
(1.11375 -8.41274e-09 -6.51474e-11)
(1.11375 -7.33002e-09 -6.57394e-11)
(1.11375 -4.70519e-09 -1.68954e-11)
(1.11375 -1.72645e-09 9.60493e-12)
(1.11375 -9.12472e-10 6.85285e-12)
(1.11375 6.04492e-09 2.24658e-11)
(1.11438 1.21978e-08 4.43541e-11)
(1.11438 8.28198e-09 5.49756e-11)
(1.11438 7.78299e-10 3.75919e-11)
(1.11438 -5.40466e-09 -1.5761e-11)
(1.11438 -7.68329e-09 -6.52143e-11)
(1.11438 -6.69553e-09 -6.60504e-11)
(1.11438 -4.30573e-09 -1.72918e-11)
(1.11438 -1.64285e-09 9.33252e-12)
(1.11438 -1.00059e-09 6.74703e-12)
(1.11438 5.43928e-09 2.26084e-11)
(1.11496 1.10709e-08 4.46114e-11)
(1.11496 7.60182e-09 5.52858e-11)
(1.11496 8.35822e-10 3.78578e-11)
(1.11496 -4.83717e-09 -1.56148e-11)
(1.11496 -6.95953e-09 -6.52716e-11)
(1.11496 -6.05828e-09 -6.6326e-11)
(1.11496 -3.89117e-09 -1.76429e-11)
(1.11496 -1.5378e-09 9.09185e-12)
(1.11496 -1.07168e-09 6.65018e-12)
(1.11496 4.80756e-09 2.2734e-11)
(1.11548 9.91363e-09 4.48377e-11)
(1.11548 6.92794e-09 5.55602e-11)
(1.11548 8.99559e-10 3.80937e-11)
(1.11548 -4.27345e-09 -1.54835e-11)
(1.11548 -6.24178e-09 -6.53198e-11)
(1.11548 -5.41872e-09 -6.65676e-11)
(1.11548 -3.46243e-09 -1.79511e-11)
(1.11548 -1.41252e-09 8.88105e-12)
(1.11548 -1.12687e-09 6.56204e-12)
(1.11548 4.15076e-09 2.28432e-11)
(1.11593 8.72891e-09 4.50338e-11)
(1.11593 6.26116e-09 5.57998e-11)
(1.11593 9.69202e-10 3.83004e-11)
(1.11593 -3.71371e-09 -1.53666e-11)
(1.11593 -5.53002e-09 -6.53591e-11)
(1.11593 -4.7772e-09 -6.67765e-11)
(1.11593 -3.02061e-09 -1.82182e-11)
(1.11593 -1.26852e-09 8.69837e-12)
(1.11593 -1.16758e-09 6.4824e-12)
(1.11593 3.47018e-09 2.29366e-11)
(1.11633 7.51971e-09 4.52009e-11)
(1.11633 5.60192e-09 5.60055e-11)
(1.11633 1.04439e-09 3.84787e-11)
(1.11633 -3.15792e-09 -1.52638e-11)
(1.11633 -4.82399e-09 -6.539e-11)
(1.11633 -4.13398e-09 -6.69538e-11)
(1.11633 -2.56694e-09 -1.84463e-11)
(1.11633 -1.10765e-09 8.54217e-12)
(1.11633 -1.19551e-09 6.41112e-12)
(1.11633 2.76744e-09 2.30147e-11)
(1.11668 6.28926e-09 4.53397e-11)
(1.11668 4.95029e-09 5.61783e-11)
(1.11668 1.12472e-09 3.86294e-11)
(1.11668 -2.60579e-09 -1.51749e-11)
(1.11668 -4.12313e-09 -6.54129e-11)
(1.11668 -3.48928e-09 -6.71009e-11)
(1.11668 -2.10283e-09 -1.86371e-11)
(1.11668 -9.32016e-10 8.41099e-12)
(1.11668 -1.2126e-09 6.34814e-12)
(1.11668 2.04446e-09 2.30781e-11)
(1.11696 5.04095e-09 4.54512e-11)
(1.11696 4.30601e-09 5.6319e-11)
(1.11696 1.20971e-09 3.8753e-11)
(1.11696 -2.05678e-09 -1.50996e-11)
(1.11696 -3.42665e-09 -6.54282e-11)
(1.11696 -2.84321e-09 -6.72188e-11)
(1.11696 -1.6298e-09 -1.87921e-11)
(1.11696 -7.43965e-10 8.30352e-12)
(1.11696 -1.22103e-09 6.2934e-12)
(1.11696 1.30349e-09 2.31272e-11)
(1.11719 3.7783e-09 4.5536e-11)
(1.11719 3.66848e-09 5.64282e-11)
(1.11719 1.29883e-09 3.88502e-11)
(1.11719 -1.51016e-09 -1.50377e-11)
(1.11719 -2.73354e-09 -6.54361e-11)
(1.11719 -2.19583e-09 -6.73083e-11)
(1.11719 -1.14949e-09 -1.89128e-11)
(1.11719 -5.46074e-10 8.21861e-12)
(1.11719 -1.22318e-09 6.24687e-12)
(1.11719 5.47027e-10 2.31625e-11)
(1.11735 2.50498e-09 4.55946e-11)
(1.11735 3.03679e-09 5.65065e-11)
(1.11735 1.39151e-09 3.89214e-11)
(1.11735 -9.65023e-10 -1.4989e-11)
(1.11735 -2.04259e-09 -6.5437e-11)
(1.11735 -1.54714e-09 -6.73702e-11)
(1.11735 -6.63641e-10 -1.90002e-11)
(1.11735 -3.41098e-10 8.15532e-12)
(1.11735 -1.22162e-09 6.20852e-12)
(1.11735 -2.22211e-10 2.31843e-11)
(1.11747 1.2247e-09 4.56275e-11)
(1.11747 2.40981e-09 5.65543e-11)
(1.11747 1.48714e-09 3.89669e-11)
(1.11747 -4.2028e-10 -1.49535e-11)