/*--------------------------------*- C++ -*----------------------------------*\
| =========                 |                                                 |
| \\      /  F ield         | OpenFOAM: The Open Source CFD Toolbox           |
|  \\    /   O peration     | Version:  2.3.0                                 |
|   \\  /    A nd           | Web:      www.OpenFOAM.org                      |
|    \\/     M anipulation  |                                                 |
\*---------------------------------------------------------------------------*/
FoamFile
{
    version     2.0;
    format      ascii;
    class       volScalarField;
    location    "400";
    object      epsilon;
}
// * * * * * * * * * * * * * * * * * * * * * * * * * * * * * * * * * * * * * //

dimensions      [0 2 -3 0 0 0 0];

internalField   nonuniform List<scalar> 
600
(
0.00340748
0.00340748
0.00340749
0.00340749
0.0034075
0.0034075
0.0034075
0.00340749
0.00340749
0.00340749
0.000881621
0.000881611
0.00088161
0.00088161
0.000881609
0.000881607
0.000881605
0.000881603
0.000881601
0.000881599
0.000247031
0.000247042
0.00024705
0.000247054
0.000247056
0.000247057
0.000247057
0.000247057
0.000247058
0.000247058
0.000247043
0.000247055
0.000247063
0.000247067
0.000247069
0.00024707
0.000247071
0.000247071
0.000247071
0.000247071
0.000881658
0.000881649
0.000881648
0.000881648
0.000881647
0.000881646
0.000881644
0.000881642
0.00088164
0.000881638
0.00340752
0.00340752
0.00340753
0.00340753
0.00340754
0.00340754
0.00340753
0.00340753
0.00340753
0.00340752
0.0034073
0.0034073
0.0034073
0.00340731
0.00340731
0.00340731
0.00340731
0.00340731
0.0034073
0.0034073
0.000881483
0.000881474
0.000881472
0.000881472
0.000881471
0.000881469
0.000881467
0.000881465
0.000881463
0.000881461
0.000246971
0.00024698
0.000246987
0.000246991
0.000246992
0.000246993
0.000246993
0.000246993
0.000246994
0.000246994
0.000246983
0.000246993
0.000247
0.000247004
0.000247005
0.000247006
0.000247007
0.000247007
0.000247007
0.000247007
0.00088152
0.000881511
0.00088151
0.00088151
0.000881509
0.000881507
0.000881505
0.000881503
0.000881501
0.000881499
0.00340734
0.00340734
0.00340734
0.00340734
0.00340735
0.00340735
0.00340735
0.00340734
0.00340734
0.00340734
0.00340708
0.00340708
0.00340709
0.00340709
0.00340709
0.00340709
0.00340709
0.00340709
0.00340709
0.00340708
0.000881323
0.000881313
0.000881312
0.000881311
0.00088131
0.000881308
0.000881306
0.000881304
0.000881302
0.0008813
0.0002469
0.000246908
0.000246914
0.000246917
0.000246918
0.000246919
0.000246919
0.000246919
0.000246919
0.000246919
0.000246913
0.000246921
0.000246927
0.00024693
0.000246931
0.000246932
0.000246932
0.000246932
0.000246932
0.000246932
0.000881359
0.00088135
0.000881348
0.000881348
0.000881347
0.000881345
0.000881343
0.000881341
0.000881339
0.000881337
0.00340712
0.00340712
0.00340712
0.00340713
0.00340713
0.00340713
0.00340713
0.00340713
0.00340712
0.00340712
0.00340694
0.00340694
0.00340694
0.00340694
0.00340695
0.00340695
0.00340695
0.00340694
0.00340694
0.00340694
0.000881211
0.000881201
0.000881199
0.000881198
0.000881197
0.000881195
0.000881193
0.000881191
0.000881189
0.000881187
0.000246853
0.000246859
0.000246864
0.000246867
0.000246868
0.000246869
0.000246869
0.000246869
0.000246868
0.000246868
0.000246865
0.000246872
0.000246877
0.00024688
0.000246881
0.000246881
0.000246882
0.000246881
0.000246881
0.000246881
0.000881246
0.000881237
0.000881235
0.000881234
0.000881233
0.000881232
0.00088123
0.000881228
0.000881225
0.000881224
0.00340697
0.00340697
0.00340698
0.00340698
0.00340698
0.00340698
0.00340698
0.00340698
0.00340698
0.00340697
0.00340687
0.00340687
0.00340687
0.00340688
0.00340688
0.00340688
0.00340688
0.00340688
0.00340687
0.00340687
0.00088116
0.00088115
0.000881147
0.000881146
0.000881145
0.000881144
0.000881141
0.000881139
0.000881137
0.000881135
0.000246832
0.000246838
0.000246843
0.000246845
0.000246846
0.000246847
0.000246847
0.000246846
0.000246846
0.000246846
0.000246844
0.00024685
0.000246855
0.000246858
0.000246859
0.000246859
0.000246859
0.000246859
0.000246859
0.000246859
0.000881195
0.000881185
0.000881183
0.000881182
0.000881181
0.000881179
0.000881178
0.000881175
0.000881173
0.000881171
0.00340691
0.00340691
0.00340691
0.00340691
0.00340692
0.00340692
0.00340692
0.00340691
0.00340691
0.00340691
0.00340687
0.00340687
0.00340687
0.00340688
0.00340688
0.00340688
0.00340688
0.00340688
0.00340687
0.00340687
0.000881159
0.000881149
0.000881146
0.000881146
0.000881144
0.000881143
0.000881141
0.000881138
0.000881136
0.000881134
0.000246832
0.000246838
0.000246842
0.000246845
0.000246846
0.000246846
0.000246846
0.000246846
0.000246846
0.000246845
0.000246843
0.00024685
0.000246855
0.000246857
0.000246858
0.000246859
0.000246859
0.000246859
0.000246858
0.000246858
0.000881194
0.000881184
0.000881182
0.000881181
0.00088118
0.000881179
0.000881177
0.000881175
0.000881172
0.000881171
0.00340691
0.00340691
0.00340691
0.00340691
0.00340692
0.00340692
0.00340691
0.00340691
0.00340691
0.00340691
0.00340693
0.00340693
0.00340694
0.00340694
0.00340694
0.00340694
0.00340694
0.00340694
0.00340694
0.00340693
0.000881208
0.000881198
0.000881196
0.000881195
0.000881194
0.000881192
0.00088119
0.000881188
0.000881186
0.000881184
0.000246852
0.000246858
0.000246863
0.000246866
0.000246867
0.000246868
0.000246868
0.000246867
0.000246867
0.000246867
0.000246864
0.00024687
0.000246876
0.000246878
0.00024688
0.00024688
0.00024688
0.00024688
0.00024688
0.00024688
0.000881244
0.000881234
0.000881232
0.000881231
0.00088123
0.000881229
0.000881227
0.000881225
0.000881223
0.000881221
0.00340697
0.00340697
0.00340697
0.00340698
0.00340698
0.00340698
0.00340698
0.00340698
0.00340697
0.00340697
0.00340708
0.00340708
0.00340708
0.00340708
0.00340709
0.00340709
0.00340709
0.00340708
0.00340708
0.00340708
0.000881318
0.000881308
0.000881306
0.000881306
0.000881305
0.000881303
0.000881301
0.000881299
0.000881297
0.000881295
0.000246898
0.000246906
0.000246911
0.000246915
0.000246916
0.000246916
0.000246917
0.000246917
0.000246916
0.000246916
0.00024691
0.000246918
0.000246924
0.000246927
0.000246929
0.000246929
0.00024693
0.00024693
0.00024693
0.000246929
0.000881354
0.000881345
0.000881343
0.000881342
0.000881341
0.00088134
0.000881338
0.000881336
0.000881334
0.000881332
0.00340711
0.00340711
0.00340712
0.00340712
0.00340712
0.00340712
0.00340712
0.00340712
0.00340712
0.00340711
0.00340729
0.00340729
0.00340729
0.0034073
0.0034073
0.0034073
0.0034073
0.0034073
0.00340729
0.00340729
0.000881477
0.000881467
0.000881466
0.000881466
0.000881465
0.000881463
0.000881461
0.000881459
0.000881457
0.000881455
0.000246968
0.000246977
0.000246984
0.000246988
0.000246989
0.00024699
0.00024699
0.00024699
0.000246991
0.00024699
0.00024698
0.00024699
0.000246997
0.000247001
0.000247002
0.000247003
0.000247004
0.000247004
0.000247004
0.000247004
0.000881514
0.000881505
0.000881504
0.000881503
0.000881502
0.000881501
0.000881499
0.000881497
0.000881495
0.000881493
0.00340733
0.00340733
0.00340733
0.00340734
0.00340734
0.00340734
0.00340734
0.00340734
0.00340733
0.00340733
0.00340748
0.00340748
0.00340748
0.00340749
0.00340749
0.00340749
0.00340749
0.00340749
0.00340748
0.00340748
0.000881617
0.000881607
0.000881606
0.000881606
0.000881605
0.000881604
0.000881602
0.000881599
0.000881597
0.000881595
0.000247029
0.00024704
0.000247048
0.000247052
0.000247054
0.000247055
0.000247055
0.000247056
0.000247056
0.000247056
0.000247042
0.000247053
0.000247061
0.000247066
0.000247068
0.000247069
0.000247069
0.000247069
0.00024707
0.00024707
0.000881655
0.000881645
0.000881645
0.000881645
0.000881644
0.000881642
0.00088164
0.000881638
0.000881636
0.000881634
0.00340752
0.00340752
0.00340752
0.00340753
0.00340753
0.00340753
0.00340753
0.00340753
0.00340752
0.00340752
)
;

boundaryField
{
    bottomWall
    {
        type            epsilonWallFunction;
        value           nonuniform List<scalar> 
100
(
0.00340748
0.0034073
0.00340708
0.00340694
0.00340687
0.00340687
0.00340693
0.00340708
0.00340729
0.00340748
0.00340748
0.0034073
0.00340708
0.00340694
0.00340687
0.00340687
0.00340693
0.00340708
0.00340729
0.00340748
0.00340749
0.0034073
0.00340709
0.00340694
0.00340687
0.00340687
0.00340694
0.00340708
0.00340729
0.00340748
0.00340749
0.00340731
0.00340709
0.00340694
0.00340688
0.00340688
0.00340694
0.00340708
0.0034073
0.00340749
0.0034075
0.00340731
0.00340709
0.00340695
0.00340688
0.00340688
0.00340694
0.00340709
0.0034073
0.00340749
0.0034075
0.00340731
0.00340709
0.00340695
0.00340688
0.00340688
0.00340694
0.00340709
0.0034073
0.00340749
0.0034075
0.00340731
0.00340709
0.00340695
0.00340688
0.00340688
0.00340694
0.00340709
0.0034073
0.00340749
0.00340749
0.00340731
0.00340709
0.00340694
0.00340688
0.00340688
0.00340694
0.00340708
0.0034073
0.00340749
0.00340749
0.0034073
0.00340709
0.00340694
0.00340687
0.00340687
0.00340694
0.00340708
0.00340729
0.00340748
0.00340749
0.0034073
0.00340708
0.00340694
0.00340687
0.00340687
0.00340693
0.00340708
0.00340729
0.00340748
)
;
        Cmu             0.09;
        kappa           0.41;
        E               9.8;
        value           nonuniform List<scalar> 
100
(
0.00340748
0.0034073
0.00340708
0.00340694
0.00340687
0.00340687
0.00340693
0.00340708
0.00340729
0.00340748
0.00340748
0.0034073
0.00340708
0.00340694
0.00340687
0.00340687
0.00340693
0.00340708
0.00340729
0.00340748
0.00340749
0.0034073
0.00340709
0.00340694
0.00340687
0.00340687
0.00340694
0.00340708
0.00340729
0.00340748
0.00340749
0.00340731
0.00340709
0.00340694
0.00340688
0.00340688
0.00340694
0.00340708
0.0034073
0.00340749
0.0034075
0.00340731
0.00340709
0.00340695
0.00340688
0.00340688
0.00340694
0.00340709
0.0034073
0.00340749
0.0034075
0.00340731
0.00340709
0.00340695
0.00340688
0.00340688
0.00340694
0.00340709
0.0034073
0.00340749
0.0034075
0.00340731
0.00340709
0.00340695
0.00340688
0.00340688
0.00340694
0.00340709
0.0034073
0.00340749
0.00340749
0.00340731
0.00340709
0.00340694
0.00340688
0.00340688
0.00340694
0.00340708
0.0034073
0.00340749
0.00340749
0.0034073
0.00340709
0.00340694
0.00340687
0.00340687
0.00340694
0.00340708
0.00340729
0.00340748
0.00340749
0.0034073
0.00340708
0.00340694
0.00340687
0.00340687
0.00340693
0.00340708
0.00340729
0.00340748
)
;
    }
    topWall
    {
        type            epsilonWallFunction;
        value           nonuniform List<scalar> 
100
(
0.00340752
0.00340734
0.00340712
0.00340697
0.00340691
0.00340691
0.00340697
0.00340711
0.00340733
0.00340752
0.00340752
0.00340734
0.00340712
0.00340697
0.00340691
0.00340691
0.00340697
0.00340711
0.00340733
0.00340752
0.00340753
0.00340734
0.00340712
0.00340698
0.00340691
0.00340691
0.00340697
0.00340712
0.00340733
0.00340752
0.00340753
0.00340734
0.00340713
0.00340698
0.00340691
0.00340691
0.00340698
0.00340712
0.00340734
0.00340753
0.00340754
0.00340735
0.00340713
0.00340698
0.00340692
0.00340692
0.00340698
0.00340712
0.00340734
0.00340753
0.00340754
0.00340735
0.00340713
0.00340698
0.00340692
0.00340692
0.00340698
0.00340712
0.00340734
0.00340753
0.00340753
0.00340735
0.00340713
0.00340698
0.00340692
0.00340691
0.00340698
0.00340712
0.00340734
0.00340753
0.00340753
0.00340734
0.00340713
0.00340698
0.00340691
0.00340691
0.00340698
0.00340712
0.00340734
0.00340753
0.00340753
0.00340734
0.00340712
0.00340698
0.00340691
0.00340691
0.00340697
0.00340712
0.00340733
0.00340752
0.00340752
0.00340734
0.00340712
0.00340697
0.00340691
0.00340691
0.00340697
0.00340711
0.00340733
0.00340752
)
;
        Cmu             0.09;
        kappa           0.41;
        E               9.8;
        value           nonuniform List<scalar> 
100
(
0.00340752
0.00340734
0.00340712
0.00340697
0.00340691
0.00340691
0.00340697
0.00340711
0.00340733
0.00340752
0.00340752
0.00340734
0.00340712
0.00340697
0.00340691
0.00340691
0.00340697
0.00340711
0.00340733
0.00340752
0.00340753
0.00340734
0.00340712
0.00340698
0.00340691
0.00340691
0.00340697
0.00340712
0.00340733
0.00340752
0.00340753
0.00340734
0.00340713
0.00340698
0.00340691
0.00340691
0.00340698
0.00340712
0.00340734
0.00340753
0.00340754
0.00340735
0.00340713
0.00340698
0.00340692
0.00340692
0.00340698
0.00340712
0.00340734
0.00340753
0.00340754
0.00340735
0.00340713
0.00340698
0.00340692
0.00340692
0.00340698
0.00340712
0.00340734
0.00340753
0.00340753
0.00340735
0.00340713
0.00340698
0.00340692
0.00340691
0.00340698
0.00340712
0.00340734
0.00340753
0.00340753
0.00340734
0.00340713
0.00340698
0.00340691
0.00340691
0.00340698
0.00340712
0.00340734
0.00340753
0.00340753
0.00340734
0.00340712
0.00340698
0.00340691
0.00340691
0.00340697
0.00340712
0.00340733
0.00340752
0.00340752
0.00340734
0.00340712
0.00340697
0.00340691
0.00340691
0.00340697
0.00340711
0.00340733
0.00340752
)
;
    }
    sides1_half0
    {
        type            cyclic;
    }
    sides1_half1
    {
        type            cyclic;
    }
    inout1_half0
    {
        type            cyclic;
    }
    inout1_half1
    {
        type            cyclic;
    }
}


// ************************************************************************* //
