/*--------------------------------*- C++ -*----------------------------------*\
| =========                 |                                                 |
| \\      /  F ield         | OpenFOAM: The Open Source CFD Toolbox           |
|  \\    /   O peration     | Version:  2.3.0                                 |
|   \\  /    A nd           | Web:      www.OpenFOAM.org                      |
|    \\/     M anipulation  |                                                 |
\*---------------------------------------------------------------------------*/
FoamFile
{
    version     2.0;
    format      ascii;
    class       volScalarField;
    location    "400";
    object      k;
}
// * * * * * * * * * * * * * * * * * * * * * * * * * * * * * * * * * * * * * //

dimensions      [0 2 -2 0 0 0 0];

internalField   nonuniform List<scalar> 
600
(
0.012616
0.012616
0.0126161
0.0126161
0.0126161
0.0126161
0.0126161
0.0126161
0.0126161
0.012616
0.00716051
0.00716049
0.0071605
0.00716049
0.00716047
0.00716044
0.00716041
0.00716037
0.00716034
0.00716031
0.00370005
0.00370004
0.00370001
0.00369999
0.00369998
0.00369998
0.00369999
0.00369999
0.00369999
0.00369999
0.00370047
0.00370046
0.00370044
0.00370041
0.0037004
0.0037004
0.00370041
0.00370041
0.00370042
0.00370041
0.00716113
0.00716111
0.00716111
0.0071611
0.00716108
0.00716105
0.00716102
0.00716098
0.00716095
0.00716092
0.0126161
0.0126161
0.0126162
0.0126162
0.0126162
0.0126162
0.0126162
0.0126162
0.0126162
0.0126161
0.0126156
0.0126156
0.0126156
0.0126156
0.0126156
0.0126156
0.0126156
0.0126156
0.0126156
0.0126156
0.00715856
0.00715855
0.00715855
0.00715856
0.00715854
0.00715852
0.00715849
0.00715845
0.00715842
0.00715839
0.00369729
0.00369728
0.00369726
0.00369724
0.00369724
0.00369724
0.00369724
0.00369724
0.00369724
0.00369723
0.00369771
0.0036977
0.00369768
0.00369766
0.00369765
0.00369765
0.00369766
0.00369766
0.00369766
0.00369765
0.00715917
0.00715915
0.00715916
0.00715916
0.00715914
0.00715912
0.00715909
0.00715905
0.00715902
0.00715899
0.0126157
0.0126157
0.0126157
0.0126157
0.0126157
0.0126157
0.0126157
0.0126157
0.0126157
0.0126157
0.012615
0.012615
0.0126151
0.0126151
0.0126151
0.0126151
0.0126151
0.0126151
0.0126151
0.012615
0.00715625
0.00715624
0.00715626
0.00715627
0.00715626
0.00715624
0.00715622
0.00715618
0.00715615
0.00715612
0.00369415
0.00369414
0.00369412
0.00369411
0.0036941
0.0036941
0.0036941
0.0036941
0.00369409
0.00369408
0.00369455
0.00369455
0.00369453
0.00369451
0.00369451
0.00369451
0.00369451
0.0036945
0.0036945
0.00369449
0.00715684
0.00715684
0.00715685
0.00715686
0.00715685
0.00715683
0.0071568
0.00715677
0.00715674
0.00715671
0.0126151
0.0126151
0.0126151
0.0126152
0.0126152
0.0126152
0.0126152
0.0126152
0.0126151
0.0126151
0.0126147
0.0126147
0.0126147
0.0126147
0.0126147
0.0126147
0.0126147
0.0126147
0.0126147
0.0126147
0.0071546
0.0071546
0.00715463
0.00715464
0.00715464
0.00715463
0.0071546
0.00715457
0.00715453
0.0071545
0.00369204
0.00369203
0.00369202
0.00369201
0.00369201
0.00369201
0.003692
0.003692
0.00369199
0.00369197
0.00369244
0.00369243
0.00369242
0.00369241
0.0036924
0.0036924
0.0036924
0.00369239
0.00369239
0.00369237
0.00715519
0.00715519
0.00715521
0.00715522
0.00715522
0.0071552
0.00715517
0.00715514
0.00715511
0.00715508
0.0126148
0.0126148
0.0126148
0.0126148
0.0126148
0.0126148
0.0126148
0.0126148
0.0126148
0.0126148
0.0126145
0.0126145
0.0126145
0.0126145
0.0126145
0.0126145
0.0126145
0.0126145
0.0126145
0.0126145
0.00715384
0.00715384
0.00715387
0.00715389
0.00715389
0.00715388
0.00715385
0.00715382
0.00715378
0.00715375
0.00369111
0.00369111
0.00369109
0.00369109
0.00369108
0.00369108
0.00369108
0.00369107
0.00369106
0.00369104
0.00369151
0.0036915
0.00369149
0.00369148
0.00369147
0.00369147
0.00369147
0.00369146
0.00369145
0.00369144
0.00715442
0.00715442
0.00715445
0.00715446
0.00715446
0.00715445
0.00715442
0.00715439
0.00715436
0.00715433
0.0126146
0.0126146
0.0126146
0.0126146
0.0126146
0.0126146
0.0126146
0.0126146
0.0126146
0.0126146
0.0126145
0.0126145
0.0126145
0.0126145
0.0126145
0.0126145
0.0126145
0.0126145
0.0126145
0.0126145
0.00715383
0.00715383
0.00715386
0.00715388
0.00715388
0.00715386
0.00715384
0.0071538
0.00715377
0.00715374
0.0036911
0.00369109
0.00369108
0.00369107
0.00369107
0.00369107
0.00369106
0.00369105
0.00369104
0.00369103
0.0036915
0.00369149
0.00369147
0.00369146
0.00369146
0.00369146
0.00369145
0.00369145
0.00369144
0.00369143
0.00715441
0.00715441
0.00715443
0.00715445
0.00715445
0.00715443
0.00715441
0.00715438
0.00715434
0.00715432
0.0126146
0.0126146
0.0126146
0.0126146
0.0126146
0.0126146
0.0126146
0.0126146
0.0126146
0.0126146
0.0126147
0.0126147
0.0126147
0.0126147
0.0126147
0.0126147
0.0126147
0.0126147
0.0126147
0.0126147
0.00715456
0.00715456
0.00715459
0.0071546
0.0071546
0.00715458
0.00715456
0.00715453
0.00715449
0.00715446
0.00369199
0.00369198
0.00369197
0.00369196
0.00369195
0.00369195
0.00369195
0.00369194
0.00369193
0.00369192
0.00369239
0.00369238
0.00369237
0.00369235
0.00369235
0.00369235
0.00369235
0.00369234
0.00369233
0.00369232
0.00715515
0.00715515
0.00715517
0.00715518
0.00715518
0.00715516
0.00715513
0.0071551
0.00715507
0.00715504
0.0126148
0.0126148
0.0126148
0.0126148
0.0126148
0.0126148
0.0126148
0.0126148
0.0126148
0.0126148
0.012615
0.012615
0.012615
0.012615
0.0126151
0.0126151
0.0126151
0.012615
0.012615
0.012615
0.00715617
0.00715617
0.00715618
0.0071562
0.00715619
0.00715617
0.00715614
0.00715611
0.00715608
0.00715605
0.00369405
0.00369404
0.00369402
0.00369401
0.003694
0.003694
0.003694
0.003694
0.00369399
0.00369398
0.00369445
0.00369445
0.00369443
0.00369441
0.00369441
0.00369441
0.00369441
0.0036944
0.0036944
0.00369439
0.00715677
0.00715676
0.00715677
0.00715678
0.00715677
0.00715675
0.00715673
0.0071567
0.00715666
0.00715663
0.0126151
0.0126151
0.0126151
0.0126151
0.0126151
0.0126151
0.0126151
0.0126151
0.0126151
0.0126151
0.0126156
0.0126156
0.0126156
0.0126156
0.0126156
0.0126156
0.0126156
0.0126156
0.0126156
0.0126156
0.00715847
0.00715846
0.00715847
0.00715847
0.00715846
0.00715843
0.0071584
0.00715837
0.00715833
0.0071583
0.00369716
0.00369716
0.00369713
0.00369712
0.00369711
0.00369711
0.00369711
0.00369711
0.00369711
0.00369711
0.00369758
0.00369758
0.00369755
0.00369753
0.00369752
0.00369753
0.00369753
0.00369753
0.00369753
0.00369752
0.00715908
0.00715907
0.00715907
0.00715907
0.00715905
0.00715903
0.007159
0.00715897
0.00715894
0.00715891
0.0126157
0.0126157
0.0126157
0.0126157
0.0126157
0.0126157
0.0126157
0.0126157
0.0126157
0.0126157
0.012616
0.012616
0.012616
0.0126161
0.0126161
0.0126161
0.0126161
0.0126161
0.012616
0.012616
0.00716046
0.00716044
0.00716044
0.00716044
0.00716042
0.00716039
0.00716036
0.00716032
0.00716029
0.00716026
0.00369997
0.00369996
0.00369994
0.00369991
0.00369991
0.00369991
0.00369991
0.00369992
0.00369992
0.00369991
0.0037004
0.00370039
0.00370036
0.00370034
0.00370033
0.00370033
0.00370034
0.00370034
0.00370034
0.00370034
0.00716108
0.00716107
0.00716106
0.00716105
0.00716103
0.007161
0.00716097
0.00716094
0.0071609
0.00716087
0.0126161
0.0126161
0.0126161
0.0126162
0.0126162
0.0126162
0.0126162
0.0126162
0.0126161
0.0126161
)
;

boundaryField
{
    bottomWall
    {
        type            kqRWallFunction;
        value           nonuniform List<scalar> 
100
(
0.012616
0.0126156
0.012615
0.0126147
0.0126145
0.0126145
0.0126147
0.012615
0.0126156
0.012616
0.012616
0.0126156
0.012615
0.0126147
0.0126145
0.0126145
0.0126147
0.012615
0.0126156
0.012616
0.0126161
0.0126156
0.0126151
0.0126147
0.0126145
0.0126145
0.0126147
0.012615
0.0126156
0.012616
0.0126161
0.0126156
0.0126151
0.0126147
0.0126145
0.0126145
0.0126147
0.012615
0.0126156
0.0126161
0.0126161
0.0126156
0.0126151
0.0126147
0.0126145
0.0126145
0.0126147
0.0126151
0.0126156
0.0126161
0.0126161
0.0126156
0.0126151
0.0126147
0.0126145
0.0126145
0.0126147
0.0126151
0.0126156
0.0126161
0.0126161
0.0126156
0.0126151
0.0126147
0.0126145
0.0126145
0.0126147
0.0126151
0.0126156
0.0126161
0.0126161
0.0126156
0.0126151
0.0126147
0.0126145
0.0126145
0.0126147
0.012615
0.0126156
0.0126161
0.0126161
0.0126156
0.0126151
0.0126147
0.0126145
0.0126145
0.0126147
0.012615
0.0126156
0.012616
0.012616
0.0126156
0.012615
0.0126147
0.0126145
0.0126145
0.0126147
0.012615
0.0126156
0.012616
)
;
    }
    topWall
    {
        type            kqRWallFunction;
        value           nonuniform List<scalar> 
100
(
0.0126161
0.0126157
0.0126151
0.0126148
0.0126146
0.0126146
0.0126148
0.0126151
0.0126157
0.0126161
0.0126161
0.0126157
0.0126151
0.0126148
0.0126146
0.0126146
0.0126148
0.0126151
0.0126157
0.0126161
0.0126162
0.0126157
0.0126151
0.0126148
0.0126146
0.0126146
0.0126148
0.0126151
0.0126157
0.0126161
0.0126162
0.0126157
0.0126152
0.0126148
0.0126146
0.0126146
0.0126148
0.0126151
0.0126157
0.0126162
0.0126162
0.0126157
0.0126152
0.0126148
0.0126146
0.0126146
0.0126148
0.0126151
0.0126157
0.0126162
0.0126162
0.0126157
0.0126152
0.0126148
0.0126146
0.0126146
0.0126148
0.0126151
0.0126157
0.0126162
0.0126162
0.0126157
0.0126152
0.0126148
0.0126146
0.0126146
0.0126148
0.0126151
0.0126157
0.0126162
0.0126162
0.0126157
0.0126152
0.0126148
0.0126146
0.0126146
0.0126148
0.0126151
0.0126157
0.0126162
0.0126162
0.0126157
0.0126151
0.0126148
0.0126146
0.0126146
0.0126148
0.0126151
0.0126157
0.0126161
0.0126161
0.0126157
0.0126151
0.0126148
0.0126146
0.0126146
0.0126148
0.0126151
0.0126157
0.0126161
)
;
    }
    sides1_half0
    {
        type            cyclic;
    }
    sides1_half1
    {
        type            cyclic;
    }
    inout1_half0
    {
        type            cyclic;
    }
    inout1_half1
    {
        type            cyclic;
    }
}


// ************************************************************************* //
