/*--------------------------------*- C++ -*----------------------------------*\
| =========                 |                                                 |
| \\      /  F ield         | OpenFOAM: The Open Source CFD Toolbox           |
|  \\    /   O peration     | Version:  2.3.0                                 |
|   \\  /    A nd           | Web:      www.OpenFOAM.org                      |
|    \\/     M anipulation  |                                                 |
\*---------------------------------------------------------------------------*/
FoamFile
{
    version     2.0;
    format      ascii;
    class       volScalarField;
    location    "400";
    object      nut;
}
// * * * * * * * * * * * * * * * * * * * * * * * * * * * * * * * * * * * * * //

dimensions      [0 2 -1 0 0 0 0];

internalField   nonuniform List<scalar> 
600
(
0.00420393
0.00420393
0.00420393
0.00420393
0.00420393
0.00420393
0.00420393
0.00420393
0.00420393
0.00420393
0.00523418
0.00523422
0.00523422
0.00523421
0.00523419
0.00523416
0.00523413
0.00523409
0.00523405
0.00523401
0.00498776
0.00498752
0.00498728
0.00498714
0.00498708
0.00498706
0.00498707
0.00498707
0.00498707
0.00498706
0.00498866
0.0049884
0.00498816
0.00498801
0.00498794
0.00498793
0.00498794
0.00498794
0.00498794
0.00498794
0.00523487
0.0052349
0.0052349
0.00523488
0.00523486
0.00523482
0.00523479
0.00523475
0.00523471
0.00523468
0.00420394
0.00420394
0.00420394
0.00420395
0.00420395
0.00420395
0.00420395
0.00420395
0.00420395
0.00420394
0.00420385
0.00420385
0.00420385
0.00420385
0.00420385
0.00420385
0.00420385
0.00420385
0.00420385
0.00420385
0.00523214
0.00523218
0.0052322
0.00523221
0.00523219
0.00523217
0.00523214
0.0052321
0.00523206
0.00523203
0.00498155
0.00498134
0.00498114
0.00498102
0.00498097
0.00498095
0.00498096
0.00498096
0.00498095
0.00498093
0.00498243
0.00498221
0.004982
0.00498187
0.00498182
0.0049818
0.00498181
0.00498181
0.0049818
0.00498179
0.00523281
0.00523285
0.00523286
0.00523286
0.00523284
0.00523282
0.00523279
0.00523275
0.00523271
0.00523268
0.00420386
0.00420386
0.00420386
0.00420387
0.00420387
0.00420387
0.00420387
0.00420387
0.00420386
0.00420386
0.00420375
0.00420375
0.00420375
0.00420376
0.00420376
0.00420376
0.00420376
0.00420376
0.00420376
0.00420375
0.00522971
0.00522976
0.0052298
0.00522982
0.00522982
0.0052298
0.00522977
0.00522973
0.0052297
0.00522967
0.00497449
0.00497432
0.00497416
0.00497406
0.00497402
0.00497401
0.004974
0.00497399
0.00497398
0.00497395
0.00497535
0.00497516
0.00497499
0.00497489
0.00497484
0.00497483
0.00497483
0.00497482
0.00497481
0.00497479
0.00523037
0.00523042
0.00523045
0.00523046
0.00523045
0.00523043
0.0052304
0.00523037
0.00523034
0.00523031
0.00420377
0.00420377
0.00420377
0.00420377
0.00420377
0.00420377
0.00420377
0.00420377
0.00420377
0.00420377
0.00420369
0.00420369
0.00420369
0.00420369
0.00420369
0.00420369
0.00420369
0.00420369
0.00420369
0.00420369
0.00522798
0.00522804
0.00522808
0.00522811
0.00522812
0.0052281
0.00522808
0.00522804
0.00522801
0.00522797
0.00496978
0.00496963
0.00496949
0.00496941
0.00496938
0.00496937
0.00496936
0.00496935
0.00496932
0.00496929
0.00497062
0.00497046
0.00497032
0.00497023
0.00497019
0.00497018
0.00497017
0.00497016
0.00497014
0.00497011
0.00522862
0.00522868
0.00522872
0.00522874
0.00522875
0.00522873
0.0052287
0.00522867
0.00522863
0.0052286
0.00420371
0.00420371
0.00420371
0.00420371
0.00420371
0.00420371
0.00420371
0.00420371
0.00420371
0.00420371
0.00420366
0.00420366
0.00420366
0.00420366
0.00420367
0.00420367
0.00420367
0.00420366
0.00420366
0.00420366
0.00522717
0.00522723
0.00522728
0.00522732
0.00522733
0.00522731
0.00522729
0.00522725
0.00522722
0.00522718
0.0049677
0.00496757
0.00496744
0.00496737
0.00496734
0.00496732
0.00496731
0.0049673
0.00496727
0.00496724
0.00496854
0.00496839
0.00496826
0.00496818
0.00496814
0.00496813
0.00496812
0.0049681
0.00496808
0.00496805
0.00522781
0.00522787
0.00522792
0.00522794
0.00522795
0.00522793
0.00522791
0.00522788
0.00522784
0.00522781
0.00420368
0.00420368
0.00420368
0.00420368
0.00420368
0.00420368
0.00420368
0.00420368
0.00420368
0.00420368
0.00420366
0.00420366
0.00420366
0.00420366
0.00420367
0.00420367
0.00420367
0.00420366
0.00420366
0.00420366
0.00522716
0.00522722
0.00522727
0.00522731
0.00522731
0.0052273
0.00522727
0.00522724
0.0052272
0.00522717
0.00496767
0.00496753
0.00496741
0.00496733
0.0049673
0.00496729
0.00496728
0.00496726
0.00496724
0.00496721
0.0049685
0.00496836
0.00496822
0.00496814
0.00496811
0.00496809
0.00496809
0.00496807
0.00496805
0.00496802
0.0052278
0.00522785
0.0052279
0.00522793
0.00522794
0.00522792
0.00522789
0.00522786
0.00522783
0.0052278
0.00420368
0.00420368
0.00420368
0.00420368
0.00420368
0.00420368
0.00420368
0.00420368
0.00420368
0.00420368
0.00420369
0.00420369
0.00420369
0.00420369
0.00420369
0.00420369
0.00420369
0.00420369
0.00420369
0.00420369
0.00522793
0.00522799
0.00522804
0.00522807
0.00522808
0.00522806
0.00522803
0.005228
0.00522796
0.00522793
0.00496966
0.00496951
0.00496938
0.0049693
0.00496926
0.00496925
0.00496924
0.00496923
0.00496921
0.00496918
0.0049705
0.00497034
0.0049702
0.00497011
0.00497007
0.00497006
0.00497005
0.00497004
0.00497002
0.00496999
0.00522858
0.00522863
0.00522868
0.0052287
0.0052287
0.00522869
0.00522866
0.00522863
0.00522859
0.00522856
0.00420371
0.00420371
0.00420371
0.00420371
0.00420371
0.00420371
0.00420371
0.00420371
0.00420371
0.0042037
0.00420375
0.00420375
0.00420375
0.00420375
0.00420376
0.00420376
0.00420375
0.00420375
0.00420375
0.00420375
0.00522964
0.00522969
0.00522972
0.00522974
0.00522974
0.00522972
0.00522969
0.00522966
0.00522962
0.00522959
0.00497427
0.00497409
0.00497393
0.00497384
0.0049738
0.00497378
0.00497378
0.00497377
0.00497375
0.00497373
0.00497512
0.00497494
0.00497477
0.00497467
0.00497462
0.00497461
0.00497461
0.0049746
0.00497459
0.00497456
0.00523029
0.00523034
0.00523037
0.00523038
0.00523038
0.00523036
0.00523033
0.00523029
0.00523026
0.00523023
0.00420377
0.00420377
0.00420377
0.00420377
0.00420377
0.00420377
0.00420377
0.00420377
0.00420377
0.00420377
0.00420384
0.00420384
0.00420384
0.00420385
0.00420385
0.00420385
0.00420385
0.00420385
0.00420384
0.00420384
0.00523205
0.00523209
0.00523211
0.00523211
0.0052321
0.00523208
0.00523204
0.00523201
0.00523197
0.00523194
0.00498127
0.00498106
0.00498086
0.00498074
0.00498068
0.00498067
0.00498067
0.00498067
0.00498066
0.00498065
0.00498215
0.00498193
0.00498172
0.00498159
0.00498154
0.00498152
0.00498153
0.00498153
0.00498152
0.00498151
0.00523272
0.00523276
0.00523277
0.00523277
0.00523276
0.00523273
0.0052327
0.00523266
0.00523263
0.00523259
0.00420386
0.00420386
0.00420386
0.00420386
0.00420386
0.00420386
0.00420386
0.00420386
0.00420386
0.00420386
0.00420392
0.00420392
0.00420393
0.00420393
0.00420393
0.00420393
0.00420393
0.00420393
0.00420393
0.00420392
0.00523413
0.00523416
0.00523417
0.00523416
0.00523414
0.00523411
0.00523407
0.00523403
0.00523399
0.00523396
0.0049876
0.00498735
0.00498712
0.00498697
0.00498691
0.0049869
0.00498691
0.00498691
0.00498691
0.0049869
0.0049885
0.00498824
0.004988
0.00498785
0.00498778
0.00498777
0.00498778
0.00498778
0.00498778
0.00498777
0.00523482
0.00523485
0.00523484
0.00523483
0.00523481
0.00523477
0.00523474
0.0052347
0.00523466
0.00523463
0.00420394
0.00420394
0.00420394
0.00420394
0.00420395
0.00420395
0.00420395
0.00420394
0.00420394
0.00420394
)
;

boundaryField
{
    bottomWall
    {
        type            nutkWallFunction;
        Cmu             0.09;
        kappa           0.41;
        E               9.8;
        value           nonuniform List<scalar> 
100
(
0.000392766
0.000392755
0.000392742
0.000392733
0.000392729
0.000392729
0.000392733
0.000392742
0.000392754
0.000392766
0.000392766
0.000392755
0.000392742
0.000392733
0.000392729
0.000392729
0.000392733
0.000392742
0.000392754
0.000392766
0.000392767
0.000392755
0.000392742
0.000392733
0.000392729
0.000392729
0.000392733
0.000392742
0.000392755
0.000392766
0.000392767
0.000392756
0.000392742
0.000392734
0.00039273
0.000392729
0.000392733
0.000392742
0.000392755
0.000392767
0.000392767
0.000392756
0.000392743
0.000392734
0.00039273
0.00039273
0.000392733
0.000392742
0.000392755
0.000392767
0.000392767
0.000392756
0.000392743
0.000392734
0.00039273
0.00039273
0.000392734
0.000392742
0.000392755
0.000392767
0.000392767
0.000392756
0.000392743
0.000392734
0.00039273
0.00039273
0.000392733
0.000392742
0.000392755
0.000392767
0.000392767
0.000392755
0.000392742
0.000392733
0.000392729
0.000392729
0.000392733
0.000392742
0.000392755
0.000392766
0.000392767
0.000392755
0.000392742
0.000392733
0.000392729
0.000392729
0.000392733
0.000392742
0.000392755
0.000392766
0.000392766
0.000392755
0.000392742
0.000392733
0.000392729
0.000392729
0.000392733
0.000392742
0.000392754
0.000392766
)
;
    }
    topWall
    {
        type            nutkWallFunction;
        Cmu             0.09;
        kappa           0.41;
        E               9.8;
        value           nonuniform List<scalar> 
100
(
0.000392769
0.000392757
0.000392744
0.000392735
0.000392731
0.000392731
0.000392735
0.000392744
0.000392757
0.000392768
0.000392769
0.000392757
0.000392744
0.000392735
0.000392731
0.000392731
0.000392735
0.000392744
0.000392757
0.000392768
0.000392769
0.000392758
0.000392744
0.000392736
0.000392732
0.000392731
0.000392735
0.000392744
0.000392757
0.000392769
0.000392769
0.000392758
0.000392745
0.000392736
0.000392732
0.000392732
0.000392736
0.000392744
0.000392757
0.000392769
0.000392769
0.000392758
0.000392745
0.000392736
0.000392732
0.000392732
0.000392736
0.000392744
0.000392758
0.000392769
0.000392769
0.000392758
0.000392745
0.000392736
0.000392732
0.000392732
0.000392736
0.000392745
0.000392758
0.000392769
0.000392769
0.000392758
0.000392745
0.000392736
0.000392732
0.000392732
0.000392736
0.000392744
0.000392757
0.000392769
0.000392769
0.000392758
0.000392745
0.000392736
0.000392732
0.000392732
0.000392735
0.000392744
0.000392757
0.000392769
0.000392769
0.000392758
0.000392744
0.000392735
0.000392731
0.000392731
0.000392735
0.000392744
0.000392757
0.000392769
0.000392769
0.000392757
0.000392744
0.000392735
0.000392731
0.000392731
0.000392735
0.000392744
0.000392757
0.000392768
)
;
    }
    sides1_half0
    {
        type            cyclic;
    }
    sides1_half1
    {
        type            cyclic;
    }
    inout1_half0
    {
        type            cyclic;
    }
    inout1_half1
    {
        type            cyclic;
    }
}


// ************************************************************************* //
