/*--------------------------------*- C++ -*----------------------------------*\
| =========                 |                                                 |
| \\      /  F ield         | OpenFOAM: The Open Source CFD Toolbox           |
|  \\    /   O peration     | Version:  2.3.0                                 |
|   \\  /    A nd           | Web:      www.OpenFOAM.org                      |
|    \\/     M anipulation  |                                                 |
\*---------------------------------------------------------------------------*/
FoamFile
{
    version     2.0;
    format      ascii;
    class       volScalarField;
    location    "400";
    object      p;
}
// * * * * * * * * * * * * * * * * * * * * * * * * * * * * * * * * * * * * * //

dimensions      [0 2 -2 0 0 0 0];

internalField   nonuniform List<scalar> 
600
(
-5.87562e-09
7.64304e-08
1.82781e-07
2.63384e-07
2.89155e-07
2.59462e-07
1.91602e-07
1.14397e-07
4.57855e-08
-1.01411e-08
-8.50533e-11
7.86683e-08
1.8505e-07
2.63654e-07
2.86699e-07
2.54413e-07
1.87519e-07
1.11752e-07
4.5229e-08
-5.08085e-09
1.60691e-08
7.44262e-08
1.74243e-07
2.55643e-07
2.83382e-07
2.53003e-07
1.86463e-07
1.10647e-07
4.36033e-08
1.05343e-08
1.63943e-08
7.44638e-08
1.7359e-07
2.55091e-07
2.83201e-07
2.52965e-07
1.86512e-07
1.10715e-07
4.36838e-08
1.11569e-08
-3.61484e-10
7.95513e-08
1.86073e-07
2.6413e-07
2.86602e-07
2.54366e-07
1.87409e-07
1.11638e-07
4.49734e-08
-6.21682e-09
-6.35823e-09
7.76877e-08
1.8387e-07
2.63842e-07
2.8905e-07
2.59405e-07
1.91454e-07
1.14222e-07
4.54152e-08
-1.14937e-08
-4.32705e-09
7.40122e-08
1.80144e-07
2.6241e-07
2.89171e-07
2.59526e-07
1.91655e-07
1.14628e-07
4.66523e-08
-6.81947e-09
3.1412e-10
7.64946e-08
1.82747e-07
2.63048e-07
2.87171e-07
2.549e-07
1.87858e-07
1.1214e-07
4.60234e-08
-2.92544e-09
1.4841e-08
7.37962e-08
1.74384e-07
2.56578e-07
2.84139e-07
2.53512e-07
1.86702e-07
1.10875e-07
4.40863e-08
9.52227e-09
1.51689e-08
7.38563e-08
1.73822e-07
2.5611e-07
2.8396e-07
2.53471e-07
1.86745e-07
1.10952e-07
4.41654e-08
1.00264e-08
-5.81493e-14
7.7348e-08
1.83678e-07
2.63435e-07
2.87124e-07
2.5486e-07
1.87767e-07
1.12024e-07
4.57787e-08
-3.96221e-09
-4.8503e-09
7.52406e-08
1.81199e-07
2.62824e-07
2.89121e-07
2.59474e-07
1.91521e-07
1.14457e-07
4.63017e-08
-8.15654e-09
-2.67454e-09
7.04297e-08
1.76609e-07
2.61347e-07
2.89487e-07
2.5987e-07
1.91914e-07
1.15083e-07
4.79009e-08
-2.72021e-09
5.91693e-10
7.33187e-08
1.79694e-07
2.62466e-07
2.87984e-07
2.55694e-07
1.88384e-07
1.12731e-07
4.71465e-08
-2.75047e-10
1.33024e-08
7.25067e-08
1.74174e-07
2.5767e-07
2.85301e-07
2.54269e-07
1.87068e-07
1.11164e-07
4.47686e-08
8.56718e-09
1.36381e-08
7.25915e-08
1.73703e-07
2.57263e-07
2.85123e-07
2.54222e-07
1.87095e-07
1.11258e-07
4.48477e-08
8.95554e-09
2.303e-10
7.41272e-08
1.80531e-07
2.62797e-07
2.87982e-07
2.55657e-07
1.88309e-07
1.12596e-07
4.69134e-08
-1.25582e-09
-3.23099e-09
7.16272e-08
1.77633e-07
2.61737e-07
2.89497e-07
2.59815e-07
1.91781e-07
1.14894e-07
4.75716e-08
-4.04407e-09
-1.54469e-09
6.72452e-08
1.73666e-07
2.60629e-07
2.89971e-07
2.6036e-07
1.92265e-07
1.15559e-07
4.89846e-08
2.86671e-10
5.44982e-10
7.05241e-08
1.77188e-07
2.6214e-07
2.88801e-07
2.56455e-07
1.88858e-07
1.13258e-07
4.81103e-08
1.60216e-09
1.21074e-08
7.1049e-08
1.73656e-07
2.58478e-07
2.86375e-07
2.54955e-07
1.87405e-07
1.11384e-07
4.53653e-08
8.0681e-09
1.24489e-08
7.11568e-08
1.73249e-07
2.58105e-07
2.86204e-07
2.54907e-07
1.87419e-07
1.11487e-07
4.54437e-08
8.39769e-09
1.43512e-10
7.12931e-08
1.77965e-07
2.62446e-07
2.88826e-07
2.56425e-07
1.88798e-07
1.13111e-07
4.78896e-08
7.10627e-10
-2.13133e-09
6.84181e-08
1.74673e-07
2.61014e-07
2.89999e-07
2.60296e-07
1.92138e-07
1.1536e-07
4.86757e-08
-9.84343e-10
-1.02698e-09
6.54483e-08
1.72077e-07
2.60321e-07
2.90315e-07
2.60694e-07
1.925e-07
1.1585e-07
4.95907e-08
1.79452e-09
3.7707e-10
6.89501e-08
1.75836e-07
2.62022e-07
2.89307e-07
2.56911e-07
1.89132e-07
1.13557e-07
4.86494e-08
2.56254e-09
1.14894e-08
7.00873e-08
1.73224e-07
2.58876e-07
2.87002e-07
2.55358e-07
1.87605e-07
1.11511e-07
4.57136e-08
7.96386e-09
1.18355e-08
7.02083e-08
1.72848e-07
2.58518e-07
2.86831e-07
2.55308e-07
1.87616e-07
1.11616e-07
4.57907e-08
8.26393e-09
-4.248e-11
6.96985e-08
1.76585e-07
2.62319e-07
2.89341e-07
2.56881e-07
1.89079e-07
1.13406e-07
4.84347e-08
1.69813e-09
-1.63261e-09
6.66105e-08
1.73077e-07
2.607e-07
2.90364e-07
2.60639e-07
1.92382e-07
1.15648e-07
4.92915e-08
5.4246e-10
-1.01894e-09
6.54128e-08
1.72046e-07
2.60315e-07
2.90322e-07
2.60701e-07
1.92505e-07
1.15856e-07
4.96023e-08
1.82159e-09
3.72057e-10
6.89188e-08
1.7581e-07
2.6202e-07
2.89316e-07
2.5692e-07
1.89137e-07
1.13563e-07
4.86597e-08
2.57999e-09
1.14771e-08
7.00664e-08
1.73214e-07
2.58883e-07
2.87014e-07
2.55366e-07
1.87609e-07
1.11513e-07
4.57204e-08
7.96312e-09
1.18234e-08
7.01877e-08
1.72838e-07
2.58525e-07
2.86843e-07
2.55316e-07
1.8762e-07
1.11618e-07
4.57975e-08
8.26243e-09
-4.77285e-11
6.96668e-08
1.76558e-07
2.62317e-07
2.89351e-07
2.5689e-07
1.89084e-07
1.13412e-07
4.84451e-08
1.71598e-09
-1.62484e-09
6.65747e-08
1.73046e-07
2.60695e-07
2.90372e-07
2.60646e-07
1.92387e-07
1.15654e-07
4.93033e-08
5.6975e-10
-1.51672e-09
6.71446e-08
1.73576e-07
2.6061e-07
2.89986e-07
2.60376e-07
1.92276e-07
1.15574e-07
4.90176e-08
3.71662e-10
5.36564e-10
7.04354e-08
1.77111e-07
2.62131e-07
2.88826e-07
2.56478e-07
1.88872e-07
1.13274e-07
4.81396e-08
1.65562e-09
1.20709e-08
7.09958e-08
1.73632e-07
2.585e-07
2.86408e-07
2.54976e-07
1.87416e-07
1.11391e-07
4.5384e-08
8.0585e-09
1.24123e-08
7.11042e-08
1.73227e-07
2.58128e-07
2.86238e-07
2.54929e-07
1.8743e-07
1.11494e-07
4.54624e-08
8.38608e-09
1.3406e-10
7.12031e-08
1.77886e-07
2.62437e-07
2.88853e-07
2.5645e-07
1.88813e-07
1.13127e-07
4.79192e-08
7.64225e-10
-2.1045e-09
6.83165e-08
1.74583e-07
2.60994e-07
2.90016e-07
2.60313e-07
1.9215e-07
1.15375e-07
4.87093e-08
-8.99531e-10
-2.62233e-09
7.02851e-08
1.76473e-07
2.6131e-07
2.895e-07
2.59886e-07
1.91928e-07
1.15103e-07
4.79486e-08
-2.57738e-09
5.9274e-10
7.31907e-08
1.79576e-07
2.62446e-07
2.88015e-07
2.55725e-07
1.88405e-07
1.12755e-07
4.71891e-08
-1.83982e-10
1.32434e-08
7.24432e-08
1.74153e-07
2.57706e-07
2.85345e-07
2.54299e-07
1.87083e-07
1.11174e-07
4.47945e-08
8.5384e-09
1.35796e-08
7.2528e-08
1.73685e-07
2.57301e-07
2.85167e-07
2.54251e-07
1.8711e-07
1.11269e-07
4.48737e-08
8.92394e-09
2.28647e-10
7.39962e-08
1.80412e-07
2.62777e-07
2.88016e-07
2.55689e-07
1.8833e-07
1.12619e-07
4.6956e-08
-1.16248e-09
-3.18099e-09
7.14805e-08
1.77497e-07
2.617e-07
2.89519e-07
2.59834e-07
1.91794e-07
1.14913e-07
4.76195e-08
-3.90076e-09
-4.25782e-09
7.3882e-08
1.8001e-07
2.62365e-07
2.8917e-07
2.5953e-07
1.91659e-07
1.14642e-07
4.66971e-08
-6.6591e-09
3.2964e-10
7.63772e-08
1.82629e-07
2.6302e-07
2.87194e-07
2.54924e-07
1.87876e-07
1.1216e-07
4.60641e-08
-2.82291e-09
1.47768e-08
7.37521e-08
1.74382e-07
2.56621e-07
2.84177e-07
2.53537e-07
1.86715e-07
1.10886e-07
4.41112e-08
9.47538e-09
1.51051e-08
7.381e-08
1.73822e-07
2.56157e-07
2.83996e-07
2.53495e-07
1.86757e-07
1.10964e-07
4.41903e-08
9.97575e-09
1.14334e-11
7.72232e-08
1.83555e-07
2.63405e-07
2.8715e-07
2.54884e-07
1.87785e-07
1.12044e-07
4.58196e-08
-3.85578e-09
-4.78593e-09
7.51048e-08
1.81062e-07
2.62777e-07
2.89139e-07
2.59483e-07
1.91526e-07
1.1447e-07
4.63466e-08
-7.99692e-09
-5.84079e-09
7.63701e-08
1.82715e-07
2.6336e-07
2.89152e-07
2.59464e-07
1.91605e-07
1.14402e-07
4.58045e-08
-1.00667e-08
-7.74148e-11
7.86151e-08
1.84994e-07
2.63638e-07
2.86712e-07
2.54424e-07
1.87527e-07
1.1176e-07
4.52458e-08
-5.03379e-09
1.60398e-08
7.44092e-08
1.74245e-07
2.55666e-07
2.834e-07
2.53015e-07
1.86469e-07
1.10652e-07
4.36126e-08
1.05078e-08
1.63665e-08
7.44466e-08
1.73593e-07
2.55116e-07
2.83219e-07
2.52977e-07
1.86517e-07
1.1072e-07
4.36931e-08
1.11287e-08
-3.58094e-10
7.94966e-08
1.86017e-07
2.64114e-07
2.86618e-07
2.54379e-07
1.87418e-07
1.11647e-07
4.49901e-08
-6.16876e-09
-6.32947e-09
7.76268e-08
1.83809e-07
2.6382e-07
2.89052e-07
2.59408e-07
1.91456e-07
1.14228e-07
4.54341e-08
-1.14229e-08
)
;

boundaryField
{
    bottomWall
    {
        type            zeroGradient;
    }
    topWall
    {
        type            zeroGradient;
    }
    sides1_half0
    {
        type            cyclic;
    }
    sides1_half1
    {
        type            cyclic;
    }
    inout1_half0
    {
        type            cyclic;
    }
    inout1_half1
    {
        type            cyclic;
    }
}


// ************************************************************************* //
