/*--------------------------------*- C++ -*----------------------------------*\
| =========                 |                                                 |
| \\      /  F ield         | OpenFOAM: The Open Source CFD Toolbox           |
|  \\    /   O peration     | Version:  2.3.0                                 |
|   \\  /    A nd           | Web:      www.OpenFOAM.org                      |
|    \\/     M anipulation  |                                                 |
\*---------------------------------------------------------------------------*/
FoamFile
{
    version     2.0;
    format      ascii;
    class       surfaceScalarField;
    location    "400";
    object      phi;
}
// * * * * * * * * * * * * * * * * * * * * * * * * * * * * * * * * * * * * * //

dimensions      [0 3 -1 0 0 0 0];

internalField   nonuniform List<scalar> 
1580
(
0.286149
-8.86317e-08
-1.44243e-08
0.286149
-1.72712e-07
-1.04914e-08
0.286149
-1.80293e-07
-5.41868e-09
0.286149
-1.21338e-07
-2.26456e-09
0.286149
-1.36776e-08
2.59567e-09
0.286149
9.14519e-08
8.80368e-09
0.286149
1.46559e-07
1.27387e-08
0.286149
1.53801e-07
1.12325e-08
0.286149
1.35005e-07
4.87604e-09
4.94615e-08
-7.27348e-09
0.34206
-9.48504e-08
-6.50204e-09
0.34206
-8.45598e-08
-7.16757e-09
0.34206
-4.67211e-08
-6.60676e-09
0.34206
-2.16544e-08
-6.58589e-09
0.34206
-5.10834e-09
-3.92275e-09
0.34206
1.5883e-08
2.56448e-09
0.34206
4.5117e-08
8.99147e-09
0.34206
7.27588e-08
1.13541e-08
0.34206
1.00071e-07
8.26186e-09
1.83972e-08
-1.04418e-10
0.36805
-1.24484e-09
1.68645e-09
0.36805
-1.53231e-09
-5.19366e-09
0.36805
-5.85332e-10
-1.12876e-08
0.36805
1.71473e-09
-1.3524e-08
0.36805
2.84907e-09
-9.53656e-09
0.36805
2.11767e-09
-8.08726e-10
0.36805
5.13164e-10
7.78821e-09
0.36805
-9.37037e-10
1.22756e-08
0.368051
-1.45872e-09
1.0661e-08
-1.39581e-09
7.24035e-09
0.368049
9.72449e-08
1.71724e-09
0.368049
7.89794e-08
-5.22982e-09
0.368049
3.78154e-08
-1.14198e-08
0.368049
1.67269e-08
-1.36384e-08
0.368049
5.84583e-09
-9.58615e-09
0.368049
-1.19978e-08
-8.04832e-10
0.368049
-4.08062e-08
7.8325e-09
0.368049
-6.94973e-08
1.22941e-08
0.368049
-9.82146e-08
1.06625e-08
-1.52e-08
7.32854e-09
0.34206
9.18157e-08
-6.5013e-09
0.34206
1.68298e-07
-7.05094e-09
0.34206
1.71336e-07
-6.37538e-09
0.34206
1.14855e-07
-6.41052e-09
0.34206
1.2808e-08
-3.8809e-09
0.34206
-8.82734e-08
2.52406e-09
0.34206
-1.42266e-07
8.9057e-09
0.34206
-1.50087e-07
1.12915e-08
0.34206
-1.32555e-07
8.20838e-09
-4.54975e-08
-2.56904e-10
0.28615
-1.43966e-08
0.28615
-1.03445e-08
0.286151
-5.21635e-09
0.286151
-2.114e-09
0.286151
2.61786e-09
0.286151
8.74111e-09
0.28615
1.26161e-08
0.28615
1.11288e-08
0.28615
4.78265e-09
-7.38116e-09
0.286143
-6.9918e-08
-1.99172e-08
0.286143
-1.61718e-07
-1.47262e-08
0.286143
-1.80759e-07
-7.82045e-09
0.286143
-1.273e-07
-3.6293e-09
0.286143
-2.02604e-08
3.15306e-09
0.286143
8.4979e-08
1.22755e-08
0.286143
1.40001e-07
1.81608e-08
0.286143
1.47839e-07
1.60893e-08
0.286143
1.30391e-07
6.83636e-09
5.67813e-08
-1.00835e-08
0.342059
-7.93371e-08
-9.019e-09
0.342059
-8.353e-08
-1.04876e-08
0.342058
-5.82716e-08
-1.02323e-08
0.342058
-3.43833e-08
-1.046e-08
0.342058
-1.14622e-08
-6.30793e-09
0.342058
1.59305e-08
3.5049e-09
0.342059
4.78268e-08
1.32962e-08
0.342059
7.52315e-08
1.69692e-08
0.342059
1.00619e-07
1.24951e-08
2.74261e-08
5.10137e-10
0.368058
-1.24837e-09
2.22563e-09
0.368058
-1.50143e-09
-7.44076e-09
0.368058
-6.0776e-10
-1.62823e-08
0.368058
1.6346e-09
-1.99377e-08
0.368058
2.81121e-09
-1.4462e-08
0.368058
2.11702e-09
-1.58857e-09
0.368058
5.4469e-10
1.13897e-08
0.368058
-9.11043e-10
1.84297e-08
0.368058
-1.44278e-09
1.63801e-08
-1.35907e-09
1.05998e-08
0.368057
8.17521e-08
2.27321e-09
0.368057
7.81695e-08
-7.4799e-09
0.368057
4.94631e-08
-1.64289e-08
0.368057
2.94281e-08
-2.00618e-08
0.368057
1.21982e-08
-1.45294e-08
0.368057
-1.20958e-08
-1.59234e-09
0.368057
-4.36079e-08
1.14403e-08
0.368057
-7.21455e-08
1.84519e-08
0.368057
-9.89399e-08
1.63806e-08
-2.41728e-08
1.06902e-08
0.342059
7.30663e-08
-9.0412e-09
0.342059
1.57502e-07
-1.03522e-08
0.342058
1.72087e-07
-9.96657e-09
0.342058
1.2103e-07
-1.02756e-08
0.342058
1.95104e-08
-6.25983e-09
0.342058
-8.188e-08
3.46815e-09
0.342058
-1.35923e-07
1.32063e-08
0.342059
-1.44384e-07
1.69185e-08
0.342059
-1.28093e-07
1.24436e-08
-5.28768e-08
3.22841e-10
0.286144
-1.99197e-08
0.286144
-1.45699e-08
0.286144
-7.59359e-09
0.286145
-3.4752e-09
0.286145
3.19466e-09
0.286144
1.22329e-08
0.286144
1.80675e-08
0.286144
1.60166e-08
0.286144
6.74885e-09
-1.02293e-08
0.286135
-4.76746e-08
-1.66682e-08
0.286136
-1.51133e-07
-1.24389e-08
0.286136
-1.84433e-07
-6.7908e-09
0.286136
-1.3648e-07
-3.49856e-09
0.286136
-2.87154e-08
2.26652e-09
0.286136
7.81444e-08
1.03791e-08
0.286136
1.33867e-07
1.5713e-08
0.286136
1.4255e-07
1.39652e-08
0.286136
1.26748e-07
5.77484e-09
6.72388e-08
-8.47612e-09
0.342057
-6.09696e-08
-7.50236e-09
0.342057
-8.42251e-08
-9.2902e-09
0.342057
-7.45671e-08
-9.58444e-09
0.342057
-5.14435e-08
-1.00367e-08
0.342057
-1.96681e-08
-6.19645e-09
0.342057
1.64078e-08
2.87603e-09
0.342057
5.22419e-08
1.19517e-08
0.342057
7.96158e-08
1.54313e-08
0.342057
1.0291e-07
1.14838e-08
3.99576e-08
9.88803e-10
0.368066
-1.2268e-09
1.74327e-09
0.368066
-1.51025e-09
-6.49064e-09
0.368066
-6.71243e-10
-1.42533e-08
0.368066
1.548e-09
-1.78562e-08
0.368066
2.73385e-09
-1.33231e-08
0.368066
2.08932e-09
-1.83165e-09
0.368066
5.55073e-10
1.00751e-08
0.368066
-8.87459e-10
1.67681e-08
0.368066
-1.39039e-09
1.52597e-08
-1.25728e-09
9.49899e-09
0.368065
6.34262e-08
1.77769e-09
0.368065
7.89697e-08
-6.51763e-09
0.368065
6.57826e-08
-1.43582e-08
0.368065
4.64647e-08
-1.79435e-08
0.368065
2.03037e-08
-1.33764e-08
0.368065
-1.26564e-08
-1.84459e-09
0.368065
-4.80901e-08
1.01025e-08
0.368065
-7.66341e-08
1.67842e-08
0.368065
-1.01298e-07
1.52609e-08
-3.65829e-08
9.55617e-09
0.342057
5.07226e-08
-7.5241e-09
0.342057
1.46973e-07
-9.18356e-09
0.342057
1.75914e-07
-9.38736e-09
0.342057
1.30331e-07
-9.90404e-09
0.342057
2.79525e-08
-6.14548e-09
0.342057
-7.51034e-08
2.85138e-09
0.342057
-1.29896e-07
1.18914e-08
0.342057
-1.39194e-07
1.53953e-08
0.342057
-1.24484e-07
1.14444e-08
-6.33786e-08
8.74734e-10
0.286137
-1.66707e-08
0.286137
-1.23122e-08
0.286137
-6.61746e-09
0.286137
-3.38713e-09
0.286137
2.28595e-09
0.286137
1.03637e-08
0.286137
1.56488e-08
0.286137
1.3909e-08
0.286137
5.69277e-09
-8.6031e-09
0.286131
-3.15808e-08
-9.08617e-09
0.286131
-1.45324e-07
-6.84379e-09
0.286131
-1.89661e-07
-3.84776e-09
0.286131
-1.45173e-07
-2.13097e-09
0.286131
-3.5573e-08
1.04707e-09
0.286131
7.37924e-08
5.71755e-09
0.286131
1.30925e-07
8.79207e-09
0.286131
1.40469e-07
7.83959e-09
0.286131
1.25903e-07
3.16552e-09
7.64078e-08
-4.61134e-09
0.342056
-4.77263e-08
-4.04591e-09
0.342056
-8.59749e-08
-5.28093e-09
0.342056
-8.81065e-08
-5.66419e-09
0.342056
-6.52632e-08
-6.02481e-09
0.342056
-2.62953e-08
-3.76658e-09
0.342056
1.69066e-08
1.53471e-09
0.342056
5.63057e-08
6.85779e-09
0.342056
8.40207e-08
8.94096e-09
0.342056
1.06057e-07
6.71152e-09
5.03251e-08
7.94646e-10
0.368072
-1.18747e-09
8.98258e-10
0.368072
-1.46244e-09
-3.63883e-09
0.368072
-6.48603e-10
-7.99706e-09
0.368072
1.50936e-09
-1.01933e-08
0.368072
2.66573e-09
-7.7626e-09
0.368072
2.02365e-09
-1.23207e-09
0.368072
5.35443e-10
5.69909e-09
0.368072
-8.80189e-10
9.67716e-09
0.368072
-1.3597e-09
8.96339e-09
-1.21479e-09
5.44379e-09
0.368071
5.02198e-08
9.19374e-10
0.368071
8.08811e-08
-3.65052e-09
0.368071
7.94853e-08
-8.0468e-09
0.368071
6.03553e-08
-1.02373e-08
0.368071
2.6896e-08
-7.79156e-09
0.368071
-1.32665e-08
-1.23607e-09
0.368071
-5.22486e-08
5.70456e-09
0.368071
-8.1148e-08
9.68391e-09
0.368071
-1.04545e-07
8.96388e-09
-4.6988e-08
5.47115e-09
0.342056
3.45705e-08
-4.06006e-09
0.342056
1.41271e-07
-5.22262e-09
0.342056
1.81348e-07
-5.56165e-09
0.342056
1.39184e-07
-5.95508e-09
0.342056
3.49205e-08
-3.74874e-09
0.342056
-7.0808e-08
1.52692e-09
0.342056
-1.27065e-07
6.83392e-09
0.342056
-1.37259e-07
8.91852e-09
0.342056
-1.23739e-07
6.68408e-09
-7.26166e-08
7.31802e-10
0.286132
-9.08624e-09
0.286132
-6.76852e-09
0.286132
-3.74819e-09
0.286132
-2.06294e-09
0.286132
1.09285e-09
0.286132
5.70788e-09
0.286132
8.75743e-09
0.286132
7.79781e-09
0.286132
3.1097e-09
-4.68305e-09
0.286128
-2.40684e-08
-1.76912e-10
0.286129
-1.43295e-07
-1.34704e-10
0.286129
-1.93114e-07
-7.57135e-11
0.286129
-1.49992e-07
-4.07373e-11
0.286129
-3.90673e-08
2.1895e-11
0.286129
7.20515e-08
1.1304e-10
0.286129
1.30077e-07
1.71751e-10
0.286129
1.40095e-07
1.51254e-10
0.286128
1.26076e-07
5.81667e-11
8.12818e-08
-9.13313e-11
0.342056
-4.15326e-08
-8.19507e-11
0.342056
-8.731e-08
-1.08555e-10
0.342056
-9.52127e-08
-1.15006e-10
0.342056
-7.23519e-08
-1.18905e-10
0.342056
-2.96682e-08
-7.11494e-11
0.342056
1.72965e-08
3.47931e-11
0.342056
5.85653e-08
1.38713e-10
0.342056
8.65766e-08
1.77682e-10
0.342056
1.08058e-07
1.31393e-10
5.56803e-08
1.42788e-11
0.368075
-1.16632e-09
1.15467e-11
0.368074
-1.44789e-09
-7.69143e-11
0.368074
-6.56591e-10
-1.58654e-10
0.368074
1.47442e-09
-1.98522e-10
0.368074
2.61449e-09
-1.485e-10
0.368074
2.01074e-09
-1.91208e-11
0.368074
5.3192e-10
1.16787e-10
0.368074
-8.68978e-10
1.93469e-10
0.368075
-1.34516e-09
1.77588e-10
-1.18938e-09
1.03814e-10
0.368073
4.40521e-08
1.19085e-11
0.368073
8.22833e-08
-7.71927e-11
0.368073
8.66586e-08
-1.59531e-10
0.368073
6.74675e-08
-1.9926e-10
0.368073
3.02272e-08
-1.48927e-10
0.368073
-1.36584e-08
-1.91458e-11
0.368073
-5.4571e-08
1.16868e-10
0.368073
-8.37549e-08
1.93577e-10
0.368073
-1.06606e-07
1.77596e-10
-5.2361e-08
1.0428e-10
0.342056
2.70365e-08
-8.23524e-11
0.342056
1.39297e-07
-1.0778e-10
0.342056
1.849e-07
-1.13351e-10
0.342056
1.44091e-07
-1.17775e-10
0.342056
3.84025e-08
-7.05645e-11
0.342056
-6.90619e-08
3.49902e-11
0.342056
-1.26296e-07
1.38594e-10
0.342056
-1.36971e-07
1.77439e-10
0.342056
-1.2398e-07
1.30868e-10
-7.75373e-08
1.29897e-11
0.28613
-1.77113e-10
0.28613
-1.3361e-10
0.28613
-7.40151e-11
0.28613
-3.94414e-11
0.28613
2.31638e-11
0.28613
1.13228e-10
0.28613
1.71436e-10
0.28613
1.50567e-10
0.28613
5.71521e-11
-9.29143e-11
0.286128
-2.39366e-08
8.74852e-09
0.286128
-1.43264e-07
6.59043e-09
0.286129
-1.93181e-07
3.71086e-09
0.286129
-1.50081e-07
2.06273e-09
0.286129
-3.91307e-08
-9.98263e-10
0.286129
7.20204e-08
-5.50369e-09
0.286129
1.30064e-07
-8.47382e-09
0.286129
1.40093e-07
-7.5609e-09
0.286128
1.26084e-07
-3.05644e-09
8.13724e-08
4.43555e-09
0.342056
-4.14226e-08
3.88831e-09
0.342056
-8.73364e-08
5.08376e-09
0.342056
-9.53426e-08
5.46375e-09
0.342056
-7.2481e-08
5.82169e-09
0.342056
-2.973e-08
3.6472e-09
0.342056
1.73019e-08
-1.46782e-09
0.342056
5.86058e-08
-6.60834e-09
0.342056
8.66247e-08
-8.62498e-09
0.342056
1.08097e-07
-6.47958e-09
5.57778e-08
-7.75912e-10
0.368075
-1.1654e-09
-8.72213e-10
0.368075
-1.44828e-09
3.49766e-09
0.368074
-6.57564e-10
7.70385e-09
0.368074
1.47283e-09
9.83331e-09
0.368074
2.61287e-09
7.49974e-09
0.368074
2.00976e-09
1.20387e-09
0.368074
5.31442e-10
-5.48593e-09
0.368074
-8.68272e-10
-9.33087e-09
0.368075
-1.34414e-09
-8.65116e-09
-1.18819e-09
-5.25688e-09
0.368073
4.39425e-08
-8.92401e-10
0.368073
8.23091e-08
3.50877e-09
0.368073
8.67879e-08
7.7519e-09
0.368073
6.75952e-08
9.87592e-09
0.368073
3.02873e-08
7.52779e-09
0.368073
-1.36648e-08
1.20749e-09
0.368073
-5.4613e-08
-5.49112e-09
0.368073
-8.38026e-08
-9.33744e-09
0.368073
-1.06645e-07
-8.65174e-09
-5.2459e-08
-5.28203e-09
0.342056
2.69038e-08
3.90215e-09
0.342056
1.39266e-07
5.02653e-09
0.342056
1.84968e-07
5.36411e-09
0.342056
1.4418e-07
5.75358e-09
0.342056
3.84648e-08
3.63046e-09
0.342056
-6.90308e-08
-1.46078e-09
0.342056
-1.26285e-07
-6.58531e-09
0.342056
-1.36968e-07
-8.6026e-09
0.342056
-1.23988e-07
-6.45265e-09
-7.76276e-08
-7.16959e-10
0.28613
8.74884e-09
0.28613
6.5164e-09
0.28613
3.61305e-09
0.28613
1.99526e-09
0.28613
-1.04389e-09
0.28613
-5.49427e-09
0.28613
-8.4403e-09
0.28613
-7.51939e-09
0.28613
-3.00081e-09
4.50616e-09
0.28613
-3.11457e-08
1.64238e-08
0.286131
-1.4519e-07
1.22615e-08
0.286131
-1.89835e-07
6.70421e-09
0.286131
-1.45431e-07
3.46862e-09
0.286131
-3.57646e-08
-2.21839e-09
0.286131
7.36848e-08
-1.02315e-08
0.286131
1.30861e-07
-1.55041e-08
0.286131
1.4043e-07
-1.3783e-08
0.286131
1.25896e-07
-5.69559e-09
7.66754e-08
8.34986e-09
0.342056
-4.73687e-08
7.38627e-09
0.342056
-8.60409e-08
9.16882e-09
0.342056
-8.84998e-08
9.4814e-09
0.342056
-6.56586e-08
9.94034e-09
0.342056
-2.64822e-08
6.14523e-09
0.342056
1.69265e-08
-2.82616e-09
0.342056
5.6428e-08
-1.18038e-08
0.342056
8.41552e-08
-1.52507e-08
0.342056
1.06158e-07
-1.13562e-08
5.06248e-08
-9.9953e-10
0.368072
-1.18591e-09
-1.72017e-09
0.368072
-1.46243e-09
6.39911e-09
0.368072
-6.49203e-10
1.40632e-08
0.368072
1.50848e-09
1.76372e-08
0.368072
2.66622e-09
1.31775e-08
0.368072
2.02363e-09
1.8314e-09
0.368072
5.35514e-10
-9.9404e-09
0.368072
-8.80678e-10
-1.65672e-08
0.368072
-1.3603e-09
-1.50928e-08
-1.2138e-09
-9.38608e-09
0.368071
4.98627e-08
-1.75277e-09
0.368071
8.09485e-08
6.42511e-09
0.368071
7.98802e-08
1.41665e-08
0.368071
6.07523e-08
1.77237e-08
0.368071
2.70867e-08
1.32304e-08
0.368071
-1.32856e-08
1.84453e-09
0.368071
-5.23725e-08
-9.96699e-09
0.368071
-8.12862e-08
-1.65832e-08
0.368071
-1.04651e-07
-1.50943e-08
-4.72874e-08
-9.44236e-09
0.342056
3.4134e-08
7.40814e-09
0.342056
1.4114e-07
9.06075e-09
0.342056
1.81526e-07
9.28427e-09
0.342056
1.39447e-07
9.80768e-09
0.342056
3.51218e-08
6.09219e-09
0.342056
-7.06996e-08
-2.8018e-09
0.342056
-1.27004e-07
-1.17436e-08
0.342056
-1.37226e-07
-1.52136e-08
0.342056
-1.23737e-07
-1.13167e-08
-7.28884e-08
-8.84705e-10
0.286132
1.64263e-08
0.286132
1.21337e-08
0.286132
6.52907e-09
0.286132
3.35496e-09
0.286132
-2.2332e-09
0.286132
-1.02159e-08
0.286132
-1.54389e-08
0.286132
-1.37252e-08
0.286132
-5.61157e-09
8.47559e-09
0.286135
-4.68998e-08
1.99208e-08
0.286135
-1.50814e-07
1.47388e-08
0.286136
-1.84625e-07
7.83763e-09
0.286136
-1.3685e-07
3.65239e-09
0.286136
-2.9036e-08
-3.13706e-09
0.286136
7.79148e-08
-1.2285e-08
0.286136
1.33689e-07
-1.81913e-08
0.286135
1.42411e-07
-1.61176e-08
0.286135
1.26671e-07
-6.84057e-09
6.76463e-08
1.00887e-08
0.342057
-6.03274e-08
9.02369e-09
0.342057
-8.42783e-08
1.05155e-08
0.342057
-7.51743e-08
1.02819e-08
0.342057
-5.20726e-08
1.05205e-08
0.342057
-1.99757e-08
6.3477e-09
0.342057
1.64228e-08
-3.50616e-09
0.342057
5.24121e-08
-1.33394e-08
0.342057
7.97958e-08
-1.70302e-08
0.342057
1.03027e-07
-1.25436e-08
4.04307e-08
-5.35753e-10
0.368067
-1.22529e-09
-2.21548e-09
0.368067
-1.50674e-09
7.45409e-09
0.368066
-6.69349e-10
1.63128e-08
0.368066
1.54674e-09
1.9994e-08
0.368066
2.73034e-09
1.45192e-08
0.368066
2.08794e-09
1.60918e-09
0.368066
5.5312e-10
-1.14194e-08
0.368067
-8.88638e-10
-1.84974e-08
0.368067
-1.38995e-09
-1.6454e-08
-1.25362e-09
-1.06256e-08
0.368066
6.27904e-08
-2.26475e-09
0.368065
7.90266e-08
7.49478e-09
0.368065
6.63888e-08
1.646e-08
0.368065
4.70892e-08
2.01178e-08
0.368065
2.06029e-08
1.45868e-08
0.368065
-1.26731e-08
1.61356e-09
0.368065
-4.82607e-08
-1.14701e-08
0.368065
-7.68142e-08
-1.85199e-08
0.368066
-1.01415e-07
-1.64546e-08
-3.70483e-08
-1.07153e-08
0.342057
4.99477e-08
9.04846e-09
0.342057
1.4665e-07
1.03829e-08
0.342057
1.76102e-07
1.00171e-08
0.342057
1.30698e-07
1.03353e-08
0.342057
2.8267e-08
6.29646e-09
0.342057
-7.48742e-08
-3.47007e-09
0.342057
-1.29717e-07
-1.32499e-08
0.342057
-1.39053e-07
-1.69797e-08
0.342057
-1.24403e-07
-1.24925e-08
-6.37795e-08
-3.46668e-10
0.286137
1.99276e-08
0.286137
1.45856e-08
0.286137
7.61069e-09
0.286137
3.49696e-09
0.286137
-3.1759e-09
0.286137
-1.22452e-08
0.286137
-1.81007e-08
0.286137
-1.6047e-08
0.286137
-6.75479e-09
1.02359e-08
0.286142
-6.90287e-08
1.48545e-08
0.286142
-1.61228e-07
1.08141e-08
0.286143
-1.80809e-07
5.58641e-09
0.286143
-1.27592e-07
2.33527e-09
0.286143
-2.0571e-08
-2.67271e-09
0.286143
8.46828e-08
-9.0745e-09
0.286143
1.39699e-07
-1.31273e-08
0.286142
1.47561e-07
-1.15695e-08
0.286142
1.30178e-07
-5.01196e-09
5.71465e-08
7.49507e-09
0.342059
-7.8596e-08
6.70523e-09
0.342059
-8.35117e-08
7.40297e-09
0.342058
-5.88549e-08
6.82794e-09
0.342058
-3.50086e-08
6.79883e-09
0.342058
-1.17683e-08
4.04132e-09
0.342058
1.59442e-08
-2.65356e-09
0.342058
4.79693e-08
-9.28086e-09
0.342059
7.53576e-08
-1.17126e-08
0.342059
1.00651e-07
-8.52002e-09
2.78759e-08
1.03723e-10
0.368058
-1.24952e-09
-1.72434e-09
0.368058
-1.50943e-09
5.36608e-09
0.368058
-6.04944e-10
1.16384e-08
0.368058
1.64511e-09
1.39384e-08
0.368058
2.817e-09
9.82751e-09
0.368058
2.12369e-09
8.25303e-10
0.368058
5.43578e-10
-8.04073e-09
0.368058
-9.18842e-10
-1.26687e-08
0.368058
-1.45075e-09
-1.10028e-08
-1.36378e-09
-7.45542e-09
0.368057
8.10175e-08
-1.75619e-09
0.368057
7.81387e-08
5.40178e-09
0.368057
5.00418e-08
1.17727e-08
0.368057
3.00631e-08
1.40555e-08
0.368057
1.25098e-08
9.87924e-09
0.368057
-1.20954e-08
8.21551e-10
0.368057
-4.37504e-08
-8.0856e-09
0.368057
-7.22857e-08
-1.26872e-08
0.368057
-9.89885e-08
-1.10041e-08
-2.46224e-08
-7.54567e-09
0.342059
7.21827e-08
6.70642e-09
0.342058
1.57003e-07
7.2827e-09
0.342058
1.72134e-07
6.5905e-09
0.342058
1.21333e-07
6.62057e-09
0.342058
1.98206e-08
4.00242e-09
0.342058
-8.15726e-08
-2.61223e-09
0.342058
-1.35626e-07
-9.19339e-09
0.342058
-1.44119e-07
-1.16498e-08
0.342058
-1.2789e-07
-8.46624e-09
-5.32367e-08
2.59231e-10
0.286144
1.48287e-08
0.286144
1.06625e-08
0.286144
5.37926e-09
0.286144
2.18339e-09
0.286144
-2.70318e-09
0.286144
-9.00938e-09
0.286144
-1.30016e-08
0.286144
-1.14648e-08
0.286144
-4.91852e-09
7.60639e-09
0.286149
-8.81951e-08
0.286149
-1.72487e-07
0.286149
-1.80356e-07
0.286149
-1.21514e-07
0.286149
-1.38416e-08
0.286149
9.1321e-08
0.286149
1.46437e-07
0.286149
1.53693e-07
0.286149
1.34923e-07
4.96493e-08
0.34206
-9.44995e-08
0.34206
-8.45467e-08
0.34206
-4.69998e-08
0.34206
-2.1953e-08
0.34206
-5.2526e-09
0.34206
1.58947e-08
0.34206
4.51912e-08
0.34206
7.2826e-08
0.34206
1.00091e-07
1.86008e-08
0.368051
-1.25427e-09
0.368051
-1.52765e-09
0.368051
-5.75533e-10
0.368051
1.72496e-09
0.368051
2.85862e-09
0.368051
2.12152e-09
0.368051
5.11071e-10
0.368051
-9.42636e-10
0.368051
-1.46431e-09
-1.40381e-09
0.36805
9.69024e-08
0.368049
7.89778e-08
0.368049
3.80929e-08
0.368049
1.70197e-08
0.368049
5.99209e-09
0.368049
-1.20072e-08
0.368049
-4.08806e-08
0.36805
-6.95674e-08
0.36805
-9.82421e-08
-1.53994e-08
0.34206
9.13907e-08
0.34206
1.68079e-07
0.34206
1.71391e-07
0.34206
1.15024e-07
0.34206
1.29765e-08
0.34206
-8.81417e-08
0.34206
-1.42144e-07
0.34206
-1.4998e-07
0.34206
-1.32477e-07
-4.5681e-08
0.28615
0.28615
0.28615
0.286151
0.286151
0.28615
0.28615
0.28615
0.28615
)
;

boundaryField
{
    bottomWall
    {
        type            calculated;
        value           uniform 0;
    }
    topWall
    {
        type            calculated;
        value           uniform 0;
    }
    sides1_half0
    {
        type            cyclic;
        value           nonuniform List<scalar> 
60
(
-3.23563e-10
-1.47764e-10
3.48703e-11
3.32674e-11
-1.44036e-10
-3.17398e-10
-2.31e-10
-1.64036e-10
-1.23911e-10
-1.25314e-10
-1.64533e-10
-2.31116e-10
-1.14784e-10
-1.47825e-10
-2.60682e-10
-2.62076e-10
-1.48621e-10
-1.17872e-10
-4.52336e-11
-1.45092e-10
-3.06175e-10
-3.07026e-10
-1.45996e-10
-4.85795e-11
5.6424e-11
-8.36751e-11
-2.09283e-10
-2.09179e-10
-8.43721e-11
5.63266e-11
1.93336e-10
6.13602e-11
-1.01408e-11
-9.66767e-12
6.07108e-11
1.9374e-10
2.79936e-10
2.03607e-10
1.82462e-10
1.83031e-10
2.0365e-10
2.79947e-10
2.46446e-10
2.54708e-10
2.80135e-10
2.80171e-10
2.55301e-10
2.46297e-10
1.0544e-10
1.84107e-10
2.40908e-10
2.40658e-10
1.8368e-10
1.04e-10
-1.66932e-10
-5.41819e-12
1.63526e-10
1.64336e-10
-6.60199e-12
-1.65554e-10
)
;
    }
    sides1_half1
    {
        type            cyclic;
        value           nonuniform List<scalar> 
60
(
3.23563e-10
1.47764e-10
-3.48703e-11
-3.32674e-11
1.44036e-10
3.17398e-10
2.31e-10
1.64036e-10
1.23911e-10
1.25314e-10
1.64533e-10
2.31116e-10
1.14784e-10
1.47825e-10
2.60682e-10
2.62076e-10
1.48621e-10
1.17872e-10
4.52336e-11
1.45092e-10
3.06175e-10
3.07026e-10
1.45996e-10
4.85795e-11
-5.6424e-11
8.36751e-11
2.09283e-10
2.09179e-10
8.43721e-11
-5.63266e-11
-1.93336e-10
-6.13602e-11
1.01408e-11
9.66767e-12
-6.07108e-11
-1.9374e-10
-2.79936e-10
-2.03607e-10
-1.82462e-10
-1.83031e-10
-2.0365e-10
-2.79947e-10
-2.46446e-10
-2.54708e-10
-2.80135e-10
-2.80171e-10
-2.55301e-10
-2.46297e-10
-1.0544e-10
-1.84107e-10
-2.40908e-10
-2.40658e-10
-1.8368e-10
-1.04e-10
1.66932e-10
5.41819e-12
-1.63526e-10
-1.64336e-10
6.60199e-12
1.65554e-10
)
;
    }
    inout1_half0
    {
        type            cyclic;
        value           nonuniform List<scalar> 
60
(
0.286149
0.34206
0.368051
0.368049
0.34206
0.28615
0.286143
0.342059
0.368058
0.368057
0.342059
0.286144
0.286135
0.342057
0.368066
0.368065
0.342057
0.286137
0.286131
0.342056
0.368072
0.368071
0.342056
0.286132
0.286128
0.342056
0.368075
0.368074
0.342056
0.28613
0.286128
0.342056
0.368075
0.368074
0.342056
0.28613
0.28613
0.342056
0.368072
0.368071
0.342056
0.286132
0.286135
0.342057
0.368067
0.368066
0.342057
0.286137
0.286142
0.342059
0.368058
0.368057
0.342059
0.286144
0.286149
0.34206
0.368051
0.36805
0.34206
0.28615
)
;
    }
    inout1_half1
    {
        type            cyclic;
        value           nonuniform List<scalar> 
60
(
-0.286149
-0.34206
-0.368051
-0.368049
-0.34206
-0.28615
-0.286143
-0.342059
-0.368058
-0.368057
-0.342059
-0.286144
-0.286135
-0.342057
-0.368066
-0.368065
-0.342057
-0.286137
-0.286131
-0.342056
-0.368072
-0.368071
-0.342056
-0.286132
-0.286128
-0.342056
-0.368075
-0.368074
-0.342056
-0.28613
-0.286128
-0.342056
-0.368075
-0.368074
-0.342056
-0.28613
-0.28613
-0.342056
-0.368072
-0.368071
-0.342056
-0.286132
-0.286135
-0.342057
-0.368067
-0.368066
-0.342057
-0.286137
-0.286142
-0.342059
-0.368058
-0.368057
-0.342059
-0.286144
-0.286149
-0.34206
-0.368051
-0.36805
-0.34206
-0.28615
)
;
    }
}


// ************************************************************************* //
