/*--------------------------------*- C++ -*----------------------------------*\
| =========                 |                                                 |
| \\      /  F ield         | OpenFOAM: The Open Source CFD Toolbox           |
|  \\    /   O peration     | Version:  2.3.0                                 |
|   \\  /    A nd           | Web:      www.OpenFOAM.org                      |
|    \\/     M anipulation  |                                                 |
\*---------------------------------------------------------------------------*/
FoamFile
{
    version     2.0;
    format      ascii;
    class       volSymmTensorField;
    location    "400";
    object      R;
}
// * * * * * * * * * * * * * * * * * * * * * * * * * * * * * * * * * * * * * //

dimensions      [0 2 -2 0 0 0 0];

internalField   nonuniform List<symmTensor> 
600
(
(0.00841066 -0.0126159 4.23988e-08 0.00841067 7.24785e-11 0.00841067)
(0.00841066 -0.0126159 4.46226e-08 0.00841067 6.7558e-11 0.00841067)
(0.00841073 -0.012616 4.23914e-08 0.00841074 4.93608e-11 0.00841073)
(0.00841073 -0.012616 4.23915e-08 0.00841073 3.82747e-11 0.00841073)
(0.00841073 -0.012616 4.23899e-08 0.00841073 1.08975e-11 0.00841073)
(0.00841074 -0.012616 4.23905e-08 0.00841073 -4.06554e-11 0.00841073)
(0.00841074 -0.012616 4.2395e-08 0.00841073 -8.41215e-11 0.00841073)
(0.00841074 -0.012616 4.24011e-08 0.00841073 -8.96253e-11 0.00841073)
(0.00841074 -0.012616 4.24071e-08 0.00841073 -5.0926e-11 0.00841073)
(0.00841067 -0.0126158 4.24073e-08 0.00841067 2.47822e-11 0.00841067)
(0.00477367 -0.00204791 5.4527e-12 0.00477367 -1.00864e-10 0.00477367)
(0.00477366 -0.00204792 1.69685e-13 0.00477366 -3.61891e-11 0.00477366)
(0.00477367 -0.00204784 -8.61168e-13 0.00477367 4.16853e-11 0.00477367)
(0.00477366 -0.00204784 -2.35679e-12 0.00477366 7.4543e-11 0.00477366)
(0.00477365 -0.00204782 -6.65633e-12 0.00477365 7.19358e-11 0.00477365)
(0.00477363 -0.00204781 -9.17553e-12 0.00477363 5.12838e-11 0.00477363)
(0.00477361 -0.0020478 -6.24493e-12 0.00477361 2.52299e-11 0.00477361)
(0.00477358 -0.00204787 5.36566e-13 0.00477358 -5.3449e-12 0.00477358)
(0.00477356 -0.00204786 8.30956e-12 0.00477356 -2.96655e-11 0.00477356)
(0.00477354 -0.00204785 1.08257e-11 0.00477354 -8.54286e-11 0.00477354)
(0.0024667 -0.000619256 -5.29405e-08 0.0024667 -5.82694e-11 0.0024667)
(0.00246671 -0.000619225 -5.29373e-08 0.00246669 -1.88443e-11 0.00246669)
(0.00246669 -0.000619195 -5.29378e-08 0.00246667 3.3502e-11 0.00246667)
(0.00246666 -0.000619179 -5.29433e-08 0.00246666 5.12248e-11 0.00246666)
(0.00246665 -0.00061917 -5.29501e-08 0.00246665 3.78361e-11 0.00246665)
(0.00246665 -0.000619168 -5.29529e-08 0.00246665 1.86768e-11 0.00246665)
(0.00246664 -0.000619171 -5.29503e-08 0.00246666 4.32124e-12 0.00246666)
(0.00246664 -0.000619171 -5.29432e-08 0.00246666 -5.72659e-12 0.00246666)
(0.00246666 -0.000619169 -5.29375e-08 0.00246666 -9.96951e-12 0.00246666)
(0.00246666 -0.000619169 -5.29351e-08 0.00246666 -4.62501e-11 0.00246666)
(0.00246698 0.000619442 -7.9429e-08 0.00246698 5.80837e-11 0.00246698)
(0.00246697 0.000619408 -7.9424e-08 0.00246697 1.80773e-11 0.00246697)
(0.00246696 0.000619307 -5.29473e-08 0.00246696 -3.44254e-11 0.00246696)
(0.00246694 0.000619287 -5.29526e-08 0.00246694 -5.17409e-11 0.00246694)
(0.00246693 0.000619278 -5.29594e-08 0.00246693 -3.77233e-11 0.00246693)
(0.00246693 0.000619276 -5.29622e-08 0.00246693 -1.84175e-11 0.00246693)
(0.00246694 0.000619277 -5.29593e-08 0.00246694 -4.08906e-12 0.00246694)
(0.00246694 0.000619351 -7.94275e-08 0.00246694 5.99336e-12 0.00246694)
(0.00246695 0.000619355 -7.94224e-08 0.00246695 1.03378e-11 0.00246695)
(0.00246694 0.000619351 -7.94196e-08 0.00246694 4.67825e-11 0.00246694)
(0.00477409 0.00204807 5.24271e-12 0.00477409 1.00888e-10 0.00477409)
(0.00477407 0.00204807 -2.02143e-14 0.00477407 3.44227e-11 0.00477407)
(0.00477407 0.00204807 -9.01748e-13 0.00477407 -4.50548e-11 0.00477407)
(0.00477407 0.00204806 -2.20903e-12 0.00477407 -7.72758e-11 0.00477407)
(0.00477405 0.00204805 -6.48497e-12 0.00477405 -7.27397e-11 0.00477405)
(0.00477403 0.00204803 -9.06386e-12 0.00477403 -5.07539e-11 0.00477403)
(0.00477401 0.00204803 -6.20671e-12 0.00477401 -2.36572e-11 0.00477401)
(0.00477399 0.00204801 5.19806e-13 0.00477399 6.62315e-12 0.00477399)
(0.00477397 0.00204801 8.35057e-12 0.00477397 3.05672e-11 0.00477397)
(0.00477395 0.00204799 1.0773e-11 0.00477395 8.71837e-11 0.00477395)
(0.00841073 0.012616 4.23988e-08 0.00841073 -7.23874e-11 0.00841073)
(0.00841073 0.012616 4.23913e-08 0.00841073 -6.60616e-11 0.00841073)
(0.0084108 0.0126161 4.23915e-08 0.0084108 -4.68839e-11 0.0084108)
(0.0084108 0.0126161 4.23918e-08 0.0084108 -3.648e-11 0.0084108)
(0.0084108 0.0126161 4.46216e-08 0.0084108 -1.04236e-11 0.0084108)
(0.0084108 0.0126161 4.23908e-08 0.0084108 4.02318e-11 0.0084108)
(0.0084108 0.0126161 4.23953e-08 0.0084108 8.30732e-11 0.0084108)
(0.0084108 0.0126161 4.24012e-08 0.0084108 8.8666e-11 0.0084108)
(0.0084108 0.0126161 4.24073e-08 0.0084108 5.01773e-11 0.0084108)
(0.00841073 0.012616 4.46388e-08 0.00841073 -2.61101e-11 0.00841073)
(0.0084104 -0.0126156 9.59539e-08 0.0084104 1.71913e-10 0.0084104)
(0.0084104 -0.0126156 9.37052e-08 0.0084104 1.62457e-10 0.0084104)
(0.0084104 -0.0126156 9.59361e-08 0.0084104 1.23566e-10 0.0084104)
(0.0084104 -0.0126156 9.37048e-08 0.0084104 1.00272e-10 0.0084104)
(0.0084104 -0.0126156 9.5932e-08 0.0084104 3.21696e-11 0.0084104)
(0.0084104 -0.0126156 9.37018e-08 0.0084104 -9.65868e-11 0.0084104)
(0.0084104 -0.0126156 9.37126e-08 0.0084104 -2.05648e-10 0.0084104)
(0.0084104 -0.0126156 9.37271e-08 0.0084104 -2.20373e-10 0.0084104)
(0.0084104 -0.0126156 9.37417e-08 0.0084104 -1.26289e-10 0.0084104)
(0.0084104 -0.0126156 9.37431e-08 0.0084104 5.51432e-11 0.0084104)
(0.00477237 -0.00204743 2.7785e-08 0.00477237 -2.34565e-10 0.00477237)
(0.00477237 -0.00204744 2.77728e-08 0.00477237 -7.76448e-11 0.00477237)
(0.00477237 -0.00204744 2.77705e-08 0.00477237 1.0475e-10 0.00477237)
(0.00477237 -0.00204744 2.77664e-08 0.00477237 1.80735e-10 0.00477237)
(0.00477236 -0.00204743 2.77552e-08 0.00477236 1.74239e-10 0.00477236)
(0.00477235 -0.00204742 2.77487e-08 0.00477235 1.23184e-10 0.00477235)
(0.00477233 -0.00204742 2.77557e-08 0.00477233 5.68646e-11 0.00477233)
(0.0047723 -0.0020474 2.77722e-08 0.0047723 -2.10197e-11 0.0047723)
(0.00477228 -0.00204739 2.77909e-08 0.00477228 -8.27588e-11 0.00477228)
(0.00477226 -0.00204738 2.7797e-08 0.00477226 -2.07763e-10 0.00477226)
(0.00246486 -0.000618707 -1.32186e-07 0.00246486 -1.33808e-10 0.00246486)
(0.00246485 -0.000618681 -1.3218e-07 0.00246485 -4.10766e-11 0.00246485)
(0.00246484 -0.000618582 -1.58621e-07 0.00246484 7.8515e-11 0.00246484)
(0.00246483 -0.000618566 -1.58633e-07 0.00246483 1.18912e-10 0.00246483)
(0.00246483 -0.000618563 -1.58651e-07 0.00246483 9.01668e-11 0.00246483)
(0.00246483 -0.000618561 -1.58658e-07 0.00246483 4.55699e-11 0.00246483)
(0.00246483 -0.000618561 -1.58652e-07 0.00246483 1.08181e-11 0.00246483)
(0.00246483 -0.000618635 -1.32196e-07 0.00246483 -1.59597e-11 0.00246483)
(0.00246483 -0.000618633 -1.32182e-07 0.00246483 -2.9143e-11 0.00246483)
(0.00246482 -0.000618629 -1.32174e-07 0.00246482 -1.0933e-10 0.00246482)
(0.00246514 0.000618818 -1.3221e-07 0.00246514 1.33501e-10 0.00246514)
(0.00246515 0.000618789 -1.32203e-07 0.00246513 3.98952e-11 0.00246513)
(0.00246514 0.000618765 -1.32205e-07 0.00246512 -8.00225e-11 0.00246512)
(0.00246511 0.000618748 -1.32218e-07 0.00246511 -1.19692e-10 0.00246511)
(0.0024651 0.000618743 -1.32235e-07 0.0024651 -8.97774e-11 0.0024651)
(0.0024651 0.00061874 -1.32243e-07 0.0024651 -4.49621e-11 0.0024651)
(0.00246509 0.000618741 -1.32236e-07 0.00246511 -1.03913e-11 0.00246511)
(0.00246509 0.000618741 -1.32219e-07 0.00246511 1.61777e-11 0.00246511)
(0.00246511 0.000618741 -1.32205e-07 0.00246511 2.95636e-11 0.00246511)
(0.0024651 0.000618737 -1.32197e-07 0.0024651 1.10187e-10 0.0024651)
(0.00477278 0.00204765 2.77882e-08 0.00477278 2.35011e-10 0.00477278)
(0.00477277 0.00204766 2.7776e-08 0.00477277 7.44394e-11 0.00477277)
(0.00477277 0.00204758 2.7774e-08 0.00477277 -1.11191e-10 0.00477277)
(0.00477277 0.00204758 2.77702e-08 0.00477277 -1.85694e-10 0.00477277)
(0.00477276 0.00204757 2.77589e-08 0.00477276 -1.75828e-10 0.00477276)
(0.00477275 0.00204757 2.77523e-08 0.00477275 -1.22324e-10 0.00477275)
(0.00477273 0.00204755 2.77592e-08 0.00477273 -5.41347e-11 0.00477273)
(0.0047727 0.00204762 2.77757e-08 0.0047727 2.27455e-11 0.0047727)
(0.00477268 0.00204761 2.77945e-08 0.00477268 8.40087e-11 0.00477268)
(0.00477266 0.00204761 2.78004e-08 0.00477266 2.1133e-10 0.00477266)
(0.00841046 0.0126157 9.37226e-08 0.00841047 -1.72119e-10 0.00841047)
(0.00841046 0.0126157 9.59367e-08 0.00841047 -1.59864e-10 0.00841047)
(0.00841046 0.0126157 9.37052e-08 0.00841047 -1.18884e-10 0.00841047)
(0.00841047 0.0126157 9.59371e-08 0.00841047 -9.69733e-11 0.00841047)
(0.00841047 0.0126157 9.37013e-08 0.00841047 -3.12879e-11 0.00841047)
(0.00841047 0.0126157 9.59337e-08 0.00841047 9.58857e-11 0.00841047)
(0.00841047 0.0126157 9.3713e-08 0.00841047 2.03881e-10 0.00841047)
(0.00841047 0.0126157 9.37278e-08 0.00841047 2.19062e-10 0.00841047)
(0.00841047 0.0126157 9.37421e-08 0.00841047 1.25223e-10 0.00841047)
(0.00841047 0.0126157 9.37434e-08 0.00841047 -5.77818e-11 0.00841047)
(0.00841 -0.012615 8.4794e-08 0.00841 1.77808e-10 0.00841)
(0.00841 -0.012615 8.47769e-08 0.00841 1.72701e-10 0.00841)
(0.00841006 -0.0126152 8.47784e-08 0.00841007 1.39869e-10 0.00841007)
(0.00841006 -0.0126152 8.70098e-08 0.00841007 1.20088e-10 0.00841007)
(0.00841007 -0.0126152 8.47733e-08 0.00841007 4.38214e-11 0.00841007)
(0.00841007 -0.0126152 8.70054e-08 0.00841007 -1.00984e-10 0.00841007)
(0.00841007 -0.0126152 8.47856e-08 0.00841007 -2.24189e-10 0.00841007)
(0.00841007 -0.0126152 8.48013e-08 0.00841007 -2.42306e-10 0.00841007)
(0.00841007 -0.0126152 8.4816e-08 0.00841007 -1.40456e-10 0.00841007)
(0.00841 -0.012615 8.48155e-08 0.00841 5.13383e-11 0.00841)
(0.00477083 -0.00204689 2.77737e-08 0.00477083 -2.35436e-10 0.00477083)
(0.00477083 -0.0020469 2.77614e-08 0.00477083 -6.9702e-11 0.00477083)
(0.00477084 -0.00204692 2.77592e-08 0.00477084 1.14827e-10 0.00477084)
(0.00477085 -0.00204692 2.77538e-08 0.00477085 1.92407e-10 0.00477085)
(0.00477084 -0.00204691 2.77407e-08 0.00477084 1.87076e-10 0.00477084)
(0.00477083 -0.00204691 2.77332e-08 0.00477083 1.31583e-10 0.00477083)
(0.00477081 -0.0020469 2.77411e-08 0.00477081 5.55451e-11 0.00477081)
(0.00477079 -0.00204689 2.77594e-08 0.00477079 -3.43523e-11 0.00477079)
(0.00477077 -0.00204688 2.77795e-08 0.00477077 -1.05464e-10 0.00477077)
(0.00477075 -0.00204687 2.77861e-08 0.00477075 -2.22735e-10 0.00477075)
(0.00246277 -0.000618058 -1.05594e-07 0.00246277 -1.3116e-10 0.00246277)
(0.00246276 -0.000618035 -1.0559e-07 0.00246276 -3.81812e-11 0.00246276)
(0.00246275 -0.000618013 -1.05593e-07 0.00246275 7.78694e-11 0.00246275)
(0.00246274 -0.000618002 -1.05608e-07 0.00246274 1.18365e-10 0.00246274)
(0.00246273 -0.000617996 -1.05628e-07 0.00246273 9.39961e-11 0.00246273)
(0.00246273 -0.000617994 -1.05637e-07 0.00246273 5.00707e-11 0.00246273)
(0.00246273 -0.000617994 -1.0563e-07 0.00246273 1.31059e-11 0.00246273)
(0.00246273 -0.000617994 -1.05612e-07 0.00246273 -1.96119e-11 0.00246273)
(0.00246273 -0.000617991 -1.05595e-07 0.00246273 -3.86871e-11 0.00246273)
(0.00246272 -0.000617987 -1.05586e-07 0.00246272 -1.12425e-10 0.00246272)
(0.00246303 0.000618234 -1.05611e-07 0.00246303 1.30875e-10 0.00246303)
(0.00246303 0.000618214 -1.05607e-07 0.00246303 3.7115e-11 0.00246303)
(0.00246302 0.000618192 -1.32017e-07 0.00246302 -7.91857e-11 0.00246302)
(0.00246301 0.000618178 -1.32032e-07 0.00246301 -1.18881e-10 0.00246301)
(0.00246301 0.000618176 -1.32051e-07 0.00246301 -9.35512e-11 0.00246301)
(0.00246301 0.000618173 -1.32061e-07 0.00246301 -4.93468e-11 0.00246301)
(0.00246301 0.000618173 -1.32054e-07 0.00246301 -1.26422e-11 0.00246301)
(0.002463 0.00061817 -1.05629e-07 0.002463 1.96138e-11 0.002463)
(0.002463 0.00061817 -1.05612e-07 0.002463 3.88901e-11 0.002463)
(0.00246299 0.000618166 -1.05604e-07 0.00246299 1.13152e-10 0.00246299)
(0.00477123 0.00204703 2.77768e-08 0.00477123 2.3624e-10 0.00477123)
(0.00477123 0.00204705 2.77645e-08 0.00477123 6.69235e-11 0.00477123)
(0.00477123 0.00204705 2.77626e-08 0.00477123 -1.20392e-10 0.00477123)
(0.00477124 0.00204706 2.77574e-08 0.00477124 -1.96344e-10 0.00477124)
(0.00477123 0.00204705 2.77443e-08 0.00477123 -1.88291e-10 0.00477123)
(0.00477122 0.00204705 2.77368e-08 0.00477122 -1.31019e-10 0.00477122)
(0.0047712 0.00204704 2.77444e-08 0.0047712 -5.35763e-11 0.0047712)
(0.00477118 0.00204702 2.77628e-08 0.00477118 3.53248e-11 0.00477118)
(0.00477116 0.00204702 2.7783e-08 0.00477116 1.06374e-10 0.00477116)
(0.00477114 0.00204701 2.77895e-08 0.00477114 2.26075e-10 0.00477114)
(0.00841007 0.0126151 8.70254e-08 0.00841007 -1.78319e-10 0.00841007)
(0.00841006 0.0126151 8.70083e-08 0.00841007 -1.70557e-10 0.00841007)
(0.00841006 0.0126151 8.70089e-08 0.00841007 -1.35883e-10 0.00841007)
(0.00841013 0.0126153 8.4779e-08 0.00841013 -1.1747e-10 0.00841013)
(0.00841013 0.0126153 8.47739e-08 0.00841013 -4.29633e-11 0.00841013)
(0.00841014 0.0126153 8.47745e-08 0.00841013 1.00545e-10 0.00841013)
(0.00841013 0.0126153 8.70173e-08 0.00841013 2.22965e-10 0.00841013)
(0.00841014 0.0126153 8.48016e-08 0.00841013 2.41616e-10 0.00841013)
(0.00841007 0.0126151 8.48153e-08 0.00841007 1.39734e-10 0.00841007)
(0.00841007 0.0126151 8.48158e-08 0.00841007 -5.37055e-11 0.00841007)
(0.0084098 -0.0126149 4.90912e-08 0.0084098 1.23067e-10 0.0084098)
(0.0084098 -0.0126149 5.13112e-08 0.0084098 1.23341e-10 0.0084098)
(0.0084098 -0.0126149 4.90805e-08 0.0084098 1.05594e-10 0.0084098)
(0.0084098 -0.0126149 5.13116e-08 0.0084098 9.4372e-11 0.0084098)
(0.0084098 -0.0126148 4.90761e-08 0.0084098 3.73076e-11 0.0084098)
(0.0084098 -0.0126148 5.13077e-08 0.0084098 -7.10754e-11 0.0084098)
(0.0084098 -0.0126148 5.13159e-08 0.0084098 -1.6343e-10 0.0084098)
(0.0084098 -0.0126149 4.90961e-08 0.0084098 -1.78024e-10 0.0084098)
(0.0084098 -0.0126149 5.13375e-08 0.0084098 -1.04272e-10 0.0084098)
(0.0084098 -0.0126149 4.91061e-08 0.0084098 3.21238e-11 0.0084098)
(0.00476973 -0.00204641 1.11793e-11 0.00476973 -1.58219e-10 0.00476973)
(0.00476973 -0.00204643 2.74041e-12 0.00476973 -4.32582e-11 0.00476973)
(0.00476975 -0.00204644 1.00593e-12 0.00476975 8.12841e-11 0.00476975)
(0.00476976 -0.00204645 -3.59231e-12 0.00476976 1.35516e-10 0.00476976)
(0.00476976 -0.00204645 -1.36817e-11 0.00476976 1.3344e-10 0.00476976)
(0.00476975 -0.00204645 -1.92377e-11 0.00476975 9.44395e-11 0.00476975)
(0.00476973 -0.00204644 -1.34063e-11 0.00476973 3.73555e-11 0.00476973)
(0.00476971 -0.00204643 2.86169e-13 0.00476971 -3.08533e-11 0.00476971)
(0.00476969 -0.00204642 1.49022e-11 0.00476969 -8.49628e-11 0.00476969)
(0.00476967 -0.0020464 1.98029e-11 0.00476967 -1.58329e-10 0.00476967)
(0.00246136 -0.000617619 -5.27416e-08 0.00246136 -8.56475e-11 0.00246136)
(0.00246135 -0.000617601 -5.27405e-08 0.00246135 -2.46713e-11 0.00246135)
(0.00246135 -0.000617585 -5.27437e-08 0.00246135 5.03761e-11 0.00246135)
(0.00246134 -0.000617574 -5.27546e-08 0.00246134 7.83116e-11 0.00246134)
(0.00246134 -0.000617571 -5.27693e-08 0.00246134 6.51911e-11 0.00246134)
(0.00246134 -0.000617569 -5.27767e-08 0.00246134 3.69132e-11 0.00246134)
(0.00246133 -0.000617566 -5.27719e-08 0.00246133 1.08738e-11 0.00246133)
(0.00246133 -0.000617566 -5.27587e-08 0.00246133 -1.48373e-11 0.00246133)
(0.00246133 -0.000617565 -5.27459e-08 0.00246133 -3.16263e-11 0.00246133)
(0.00246131 -0.000617558 -5.27386e-08 0.00246131 -7.71139e-11 0.00246131)
(0.00246163 0.000617723 -7.91337e-08 0.00246163 8.53969e-11 0.00246163)
(0.00246162 0.000617702 -7.91315e-08 0.00246162 2.36968e-11 0.00246162)
(0.00246161 0.000617686 -7.9134e-08 0.00246161 -5.14075e-11 0.00246161)
(0.00246161 0.000617675 -7.91445e-08 0.00246161 -7.86717e-11 0.00246161)
(0.0024616 0.000617669 -7.91587e-08 0.0024616 -6.48965e-11 0.0024616)
(0.0024616 0.000617669 -7.91663e-08 0.0024616 -3.6443e-11 0.0024616)
(0.0024616 0.000617667 -7.91615e-08 0.0024616 -1.05158e-11 0.0024616)
(0.00246159 0.000617666 -7.91482e-08 0.00246159 1.49464e-11 0.00246159)
(0.00246159 0.000617666 -7.91354e-08 0.00246159 3.1917e-11 0.00246159)
(0.00246158 0.000617659 -7.91279e-08 0.00246158 7.77105e-11 0.00246158)
(0.00477013 0.00204663 1.09537e-11 0.00477013 1.58664e-10 0.00477013)
(0.00477013 0.00204665 2.51986e-12 0.00477013 4.11687e-11 0.00477013)
(0.00477014 0.00204666 9.84548e-13 0.00477014 -8.49864e-11 0.00477014)
(0.00477015 0.00204666 -3.44409e-12 0.00477015 -1.38066e-10 0.00477015)
(0.00477015 0.00204666 -1.35353e-11 0.00477015 -1.34522e-10 0.00477015)
(0.00477013 0.00204665 -1.91397e-11 0.00477013 -9.42048e-11 0.00477013)
(0.00477011 0.00204665 -1.33886e-11 0.00477011 -3.61831e-11 0.00477011)
(0.00477009 0.00204664 2.80374e-13 0.00477009 3.1699e-11 0.00477009)
(0.00477007 0.00204663 1.49851e-11 0.00477007 8.59039e-11 0.00477007)
(0.00477005 0.00204662 1.97831e-11 0.00477005 1.60603e-10 0.00477005)
(0.00840987 0.012615 5.13227e-08 0.00840987 -1.23323e-10 0.00840987)
(0.00840986 0.012615 5.13114e-08 0.00840987 -1.21759e-10 0.00840987)
(0.00840986 0.0126149 5.1312e-08 0.00840987 -1.02986e-10 0.00840987)
(0.00840986 0.0126149 4.90807e-08 0.00840987 -9.26896e-11 0.00840987)
(0.00840987 0.0126149 5.13079e-08 0.00840987 -3.66629e-11 0.00840987)
(0.00840987 0.0126149 4.90768e-08 0.00840987 7.08509e-11 0.00840987)
(0.00840987 0.0126149 5.13163e-08 0.00840987 1.62713e-10 0.00840987)
(0.00840987 0.0126149 5.13276e-08 0.00840987 1.7748e-10 0.00840987)
(0.00840987 0.0126149 4.91065e-08 0.00840987 1.03597e-10 0.00840987)
(0.00840987 0.012615 5.13377e-08 0.00840987 -3.36701e-11 0.00840987)
(0.00840967 -0.0126147 1.56198e-08 0.00840967 4.38624e-11 0.00840967)
(0.00840966 -0.0126147 1.56159e-08 0.00840967 4.47933e-11 0.00840967)
(0.00840966 -0.0126147 1.78475e-08 0.00840967 3.94847e-11 0.00840967)
(0.00840966 -0.0126146 1.56161e-08 0.00840967 3.59674e-11 0.00840967)
(0.00840967 -0.0126146 1.78457e-08 0.00840967 1.46449e-11 0.00840967)
(0.00840967 -0.0126146 1.56145e-08 0.00840967 -2.56563e-11 0.00840967)
(0.00840967 -0.0126146 1.56175e-08 0.00840967 -5.99522e-11 0.00840967)
(0.00840967 -0.0126146 1.56216e-08 0.00840967 -6.55478e-11 0.00840967)
(0.00840967 -0.0126147 1.56253e-08 0.00840967 -3.86171e-11 0.00840967)
(0.00840967 -0.0126147 1.56251e-08 0.00840967 1.08521e-11 0.00840967)
(0.00476923 -0.00204622 4.12991e-12 0.00476923 -5.504e-11 0.00476923)
(0.00476923 -0.00204625 1.18194e-12 0.00476923 -1.44818e-11 0.00476923)
(0.00476925 -0.00204626 5.44505e-13 0.00476925 2.88948e-11 0.00476925)
(0.00476926 -0.00204628 -1.26508e-12 0.00476926 4.82682e-11 0.00476926)
(0.00476926 -0.00204627 -5.07352e-12 0.00476926 4.78156e-11 0.00476926)
(0.00476925 -0.00204628 -7.13838e-12 0.00476925 3.42103e-11 0.00476925)
(0.00476923 -0.00204627 -4.99037e-12 0.00476923 1.31654e-11 0.00476923)
(0.00476921 -0.00204625 5.42079e-14 0.00476921 -1.21932e-11 0.00476921)
(0.00476919 -0.00204624 5.38926e-12 0.00476919 -3.24072e-11 0.00476919)
(0.00476917 -0.00204623 7.1671e-12 0.00476917 -5.68469e-11 0.00476917)
(0.00246074 -0.000617435 -2.6362e-08 0.00246074 -2.91765e-11 0.00246074)
(0.00246074 -0.00061742 -2.63616e-08 0.00246074 -8.46565e-12 0.00246074)
(0.00246073 -0.000617401 -2.63623e-08 0.00246073 1.69694e-11 0.00246073)
(0.00246073 -0.000617396 -2.63663e-08 0.00246073 2.68557e-11 0.00246073)
(0.00246072 -0.00061739 -2.63715e-08 0.00246072 2.30489e-11 0.00246072)
(0.00246072 -0.000617387 -2.63743e-08 0.00246072 1.35682e-11 0.00246072)
(0.00246072 -0.000617387 -2.63727e-08 0.00246072 4.27384e-12 0.00246072)
(0.00246071 -0.000617387 -2.63679e-08 0.00246071 -5.39323e-12 0.00246071)
(0.00246071 -0.000617383 -2.6363e-08 0.00246071 -1.20718e-11 0.00246071)
(0.00246069 -0.000617376 -2.63601e-08 0.00246069 -2.71289e-11 0.00246069)
(0.00246101 0.000617539 -2.63664e-08 0.00246101 2.90828e-11 0.00246101)
(0.002461 0.00061752 -2.63659e-08 0.002461 8.15811e-12 0.002461)
(0.00246099 0.000617505 -2.63667e-08 0.00246099 -1.72602e-11 0.00246099)
(0.00246099 0.000617494 -2.63705e-08 0.00246099 -2.69615e-11 0.00246099)
(0.00246098 0.000617488 -2.63757e-08 0.00246098 -2.29115e-11 0.00246098)
(0.00246098 0.000617488 -2.63786e-08 0.00246098 -1.34559e-11 0.00246098)
(0.00246098 0.000617488 -2.6377e-08 0.00246098 -4.17146e-12 0.00246098)
(0.00246097 0.000617485 -2.63721e-08 0.00246097 5.45589e-12 0.00246097)
(0.00246097 0.000617481 -2.63672e-08 0.00246097 1.22002e-11 0.00246097)
(0.00246096 0.000617478 -2.63644e-08 0.00246096 2.73103e-11 0.00246096)
(0.00476961 0.00204644 4.05596e-12 0.00476961 5.51721e-11 0.00476961)
(0.00476961 0.00204647 1.11156e-12 0.00476961 1.37645e-11 0.00476961)
(0.00476963 0.00204648 5.35633e-13 0.00476963 -3.01314e-11 0.00476963)
(0.00476964 0.00204648 -1.21844e-12 0.00476964 -4.91485e-11 0.00476964)
(0.00476964 0.00204648 -5.02519e-12 0.00476964 -4.84802e-11 0.00476964)
(0.00476963 0.00204648 -7.10783e-12 0.00476963 -3.42026e-11 0.00476963)
(0.00476961 0.00204647 -4.97978e-12 0.00476961 -1.27881e-11 0.00476961)
(0.00476959 0.00204646 5.90218e-14 0.00476959 1.25299e-11 0.00476959)
(0.00476957 0.00204645 5.41321e-12 0.00476957 3.27781e-11 0.00476957)
(0.00476955 0.00204645 7.1555e-12 0.00476955 5.7601e-11 0.00476955)
(0.00840973 0.0126147 1.56198e-08 0.00840973 -4.39373e-11 0.00840973)
(0.00840973 0.0126147 1.56159e-08 0.00840973 -4.42733e-11 0.00840973)
(0.00840973 0.0126147 1.56163e-08 0.00840974 -3.86317e-11 0.00840973)
(0.00840973 0.0126148 1.78474e-08 0.00840973 -3.5359e-11 0.00840973)
(0.00840973 0.0126147 1.56146e-08 0.00840973 -1.44313e-11 0.00840973)
(0.00840974 0.0126147 1.56146e-08 0.00840973 2.5579e-11 0.00840973)
(0.00840974 0.0126147 1.56176e-08 0.00840973 5.97124e-11 0.00840973)
(0.00840973 0.0126147 1.56217e-08 0.00840973 6.53151e-11 0.00840973)
(0.00840974 0.0126147 1.78566e-08 0.00840973 3.83432e-11 0.00840973)
(0.00840974 0.0126147 1.56252e-08 0.00840973 -1.13434e-11 0.00840973)
(0.00840967 -0.0126147 -1.33885e-08 0.00840967 -4.05123e-11 0.00840967)
(0.00840967 -0.0126147 -1.56161e-08 0.00840967 -4.13893e-11 0.00840967)
(0.00840966 -0.0126147 -1.33852e-08 0.00840967 -3.65702e-11 0.00840967)
(0.00840966 -0.0126146 -1.56163e-08 0.00840967 -3.34209e-11 0.00840967)
(0.00840967 -0.0126146 -1.33835e-08 0.00840967 -1.37208e-11 0.00840967)
(0.00840967 -0.0126146 -1.56148e-08 0.00840967 2.36328e-11 0.00840967)
(0.00840967 -0.0126146 -1.56176e-08 0.00840967 5.54787e-11 0.00840967)
(0.00840967 -0.0126146 -1.33902e-08 0.00840967 6.07482e-11 0.00840967)
(0.00840967 -0.0126147 -1.56248e-08 0.00840967 3.5865e-11 0.00840967)
(0.00840967 -0.0126147 -1.33934e-08 0.00840967 -9.93605e-12 0.00840967)
(0.00476922 -0.00204622 -3.82313e-12 0.00476922 5.10161e-11 0.00476922)
(0.00476922 -0.00204624 -1.10294e-12 0.00476922 1.3465e-11 0.00476922)
(0.00476924 -0.00204627 -5.23987e-13 0.00476924 -2.672e-11 0.00476924)
(0.00476925 -0.00204627 1.15319e-12 0.00476925 -4.47005e-11 0.00476925)
(0.00476925 -0.00204628 4.69199e-12 0.00476925 -4.43274e-11 0.00476925)
(0.00476924 -0.00204627 6.61775e-12 0.00476924 -3.17538e-11 0.00476924)
(0.00476923 -0.00204626 4.63628e-12 0.00476923 -1.22702e-11 0.00476923)
(0.0047692 -0.00204624 -3.53026e-14 0.0047692 1.12349e-11 0.0047692)
(0.00476918 -0.00204624 -4.98096e-12 0.00476918 2.99957e-11 0.00476918)
(0.00476916 -0.00204623 -6.63253e-12 0.00476916 5.2661e-11 0.00476916)
(0.00246073 -0.000617432 2.63623e-08 0.00246073 2.70248e-11 0.00246073)
(0.00246073 -0.000617413 2.63617e-08 0.00246073 7.85563e-12 0.00246073)
(0.00246072 -0.0006174 2.63625e-08 0.00246072 -1.57006e-11 0.00246072)
(0.00246071 -0.000617389 2.63659e-08 0.00246071 -2.48644e-11 0.00246071)
(0.00246071 -0.000617387 2.63709e-08 0.00246071 -2.13603e-11 0.00246071)
(0.00246071 -0.000617387 2.63736e-08 0.00246071 -1.25892e-11 0.00246071)
(0.00246071 -0.000617383 2.63721e-08 0.00246071 -3.98703e-12 0.00246071)
(0.0024607 -0.00061738 2.63675e-08 0.0024607 4.97175e-12 0.0024607)
(0.00246069 -0.000617377 2.63629e-08 0.00246069 1.11718e-11 0.00246069)
(0.00246069 -0.000617376 2.63605e-08 0.00246069 2.51239e-11 0.00246069)
(0.002461 0.000617538 2.63668e-08 0.002461 -2.69397e-11 0.002461)
(0.00246099 0.000617517 2.63661e-08 0.00246099 -7.5628e-12 0.00246099)
(0.00246098 0.000617498 2.63667e-08 0.00246098 1.59749e-11 0.00246098)
(0.00246097 0.00061749 2.63702e-08 0.00246097 2.49628e-11 0.00246097)
(0.00246097 0.000617487 2.63752e-08 0.00246097 2.12186e-11 0.00246097)
(0.00246097 0.000617485 2.63778e-08 0.00246097 1.24807e-11 0.00246097)
(0.00246097 0.000617481 2.63762e-08 0.00246097 3.89106e-12 0.00246097)
(0.00246097 0.000617481 2.63718e-08 0.00246097 -5.03134e-12 0.00246097)
(0.00246096 0.00061748 2.63673e-08 0.00246096 -1.12918e-11 0.00246096)
(0.00246095 0.000617477 2.63648e-08 0.00246095 -2.52954e-11 0.00246095)
(0.00476961 0.00204644 -3.75384e-12 0.00476961 -5.11371e-11 0.00476961)
(0.00476961 0.00204646 -1.03723e-12 0.00476961 -1.27934e-11 0.00476961)
(0.00476962 0.00204647 -5.16005e-13 0.00476962 2.78764e-11 0.00476962)
(0.00476963 0.00204648 1.10878e-12 0.00476963 4.55237e-11 0.00476963)
(0.00476963 0.00204648 4.64656e-12 0.00476963 4.49539e-11 0.00476963)
(0.00476962 0.00204647 6.58994e-12 0.00476962 3.17481e-11 0.00476962)
(0.00476961 0.00204647 4.62651e-12 0.00476961 1.19181e-11 0.00476961)
(0.00476959 0.00204646 -3.98854e-14 0.00476959 -1.15504e-11 0.00476959)
(0.00476956 0.00204645 -5.00305e-12 0.00476956 -3.03442e-11 0.00476956)
(0.00476955 0.00204644 -6.62145e-12 0.00476955 -5.33622e-11 0.00476955)
(0.00840973 0.0126147 -1.56198e-08 0.00840973 4.05844e-11 0.00840973)
(0.00840973 0.0126147 -1.56162e-08 0.00840973 4.09037e-11 0.00840973)
(0.00840973 0.0126147 -1.56165e-08 0.00840974 3.57753e-11 0.00840973)
(0.00840973 0.0126147 -1.33851e-08 0.00840973 3.28533e-11 0.00840973)
(0.00840973 0.0126147 -1.33836e-08 0.00840973 1.35322e-11 0.00840973)
(0.00840974 0.0126147 -1.33837e-08 0.00840973 -2.35576e-11 0.00840973)
(0.00840974 0.0126147 -1.56177e-08 0.00840973 -5.52547e-11 0.00840973)
(0.00840974 0.0126147 -1.56215e-08 0.00840973 -6.05286e-11 0.00840973)
(0.00840974 0.0126147 -1.33936e-08 0.00840973 -3.56066e-11 0.00840973)
(0.00840973 0.0126147 -1.56247e-08 0.00840973 1.03954e-11 0.00840973)
(0.0084098 -0.0126149 -4.90913e-08 0.0084098 -1.20175e-10 0.0084098)
(0.0084098 -0.0126149 -4.90803e-08 0.0084098 -1.20575e-10 0.0084098)
(0.0084098 -0.0126149 -5.1312e-08 0.0084098 -1.03457e-10 0.0084098)
(0.0084098 -0.0126149 -4.90806e-08 0.0084098 -9.2616e-11 0.0084098)
(0.0084098 -0.0126149 -4.90765e-08 0.0084098 -3.67403e-11 0.0084098)
(0.0084098 -0.0126149 -4.90768e-08 0.0084098 6.9435e-11 0.0084098)
(0.0084098 -0.0126149 -4.90848e-08 0.0084098 1.59934e-10 0.0084098)
(0.0084098 -0.0126149 -4.68646e-08 0.0084098 1.74304e-10 0.0084098)
(0.0084098 -0.0126149 -4.91058e-08 0.0084098 1.02173e-10 0.0084098)
(0.0084098 -0.0126149 -4.91058e-08 0.0084098 -3.12073e-11 0.0084098)
(0.00476971 -0.0020464 -1.0944e-11 0.00476971 1.54439e-10 0.00476971)
(0.00476971 -0.00204641 -2.7133e-12 0.00476971 4.21777e-11 0.00476971)
(0.00476973 -0.00204644 -1.02274e-12 0.00476973 -7.939e-11 0.00476973)
(0.00476973 -0.00204644 3.49729e-12 0.00476973 -1.32427e-10 0.00476973)
(0.00476973 -0.00204644 1.33941e-11 0.00476973 -1.30515e-10 0.00476973)
(0.00476972 -0.00204643 1.88437e-11 0.00476972 -9.24199e-11 0.00476972)
(0.00476971 -0.00204642 1.31395e-11 0.00476971 -3.6536e-11 0.00476971)
(0.00476969 -0.00204642 -2.64418e-13 0.00476969 3.02783e-11 0.00476969)
(0.00476966 -0.0020464 -1.45663e-11 0.00476966 8.33091e-11 0.00476966)
(0.00476964 -0.0020464 -1.93628e-11 0.00476964 1.54775e-10 0.00476964)
(0.00246133 -0.000617605 5.27408e-08 0.00246133 8.35074e-11 0.00246133)
(0.00246132 -0.000617586 5.27397e-08 0.00246132 2.40598e-11 0.00246132)
(0.00246131 -0.000617571 5.27427e-08 0.00246131 -4.90911e-11 0.00246131)
(0.00246131 -0.00061756 5.27533e-08 0.00246131 -7.6384e-11 0.00246131)
(0.0024613 -0.000617554 5.27674e-08 0.0024613 -6.36862e-11 0.0024613)
(0.0024613 -0.000617551 5.27747e-08 0.0024613 -3.61459e-11 0.0024613)
(0.0024613 -0.000617551 5.27703e-08 0.0024613 -1.0699e-11 0.0024613)
(0.00246129 -0.000617551 5.27574e-08 0.00246129 1.45069e-11 0.00246129)
(0.00246129 -0.000617547 5.27446e-08 0.00246129 3.10194e-11 0.00246129)
(0.00246128 -0.000617544 5.27377e-08 0.00246128 7.53015e-11 0.00246128)
(0.00246159 0.000617709 7.91322e-08 0.00246159 -8.32596e-11 0.00246159)
(0.00246159 0.00061769 7.91303e-08 0.00246159 -2.31045e-11 0.00246159)
(0.00246158 0.000617672 7.91324e-08 0.00246158 5.01061e-11 0.00246158)
(0.00246157 0.00061766 7.91425e-08 0.00246157 7.67489e-11 0.00246157)
(0.00246157 0.000617655 7.91565e-08 0.00246157 6.34169e-11 0.00246157)
(0.00246157 0.000617655 7.9164e-08 0.00246157 3.56896e-11 0.00246157)
(0.00246157 0.000617655 7.91596e-08 0.00246157 1.03435e-11 0.00246157)
(0.00246156 0.000617652 7.91463e-08 0.00246156 -1.46268e-11 0.00246156)
(0.00246155 0.000617649 7.91334e-08 0.00246155 -3.13167e-11 0.00246155)
(0.00246155 0.000617645 7.91263e-08 0.00246155 -7.58967e-11 0.00246155)
(0.0047701 0.00204661 -1.07208e-11 0.0047701 -1.54879e-10 0.0047701)
(0.0047701 0.00204664 -2.49569e-12 0.0047701 -4.01081e-11 0.0047701)
(0.00477011 0.00204664 -1.00065e-12 0.00477011 8.30521e-11 0.00477011)
(0.00477012 0.00204665 3.3527e-12 0.00477012 1.34964e-10 0.00477012)
(0.00477012 0.00204665 1.32488e-11 0.00477012 1.31542e-10 0.00477012)
(0.00477011 0.00204665 1.87448e-11 0.00477011 9.218e-11 0.00477011)
(0.00477009 0.00204663 1.31198e-11 0.00477009 3.53702e-11 0.00477009)
(0.00477007 0.00204662 -2.60078e-13 0.00477007 -3.11477e-11 0.00477007)
(0.00477005 0.00204662 -1.46467e-11 0.00477005 -8.42651e-11 0.00477005)
(0.00477003 0.0020466 -1.93412e-11 0.00477003 -1.57024e-10 0.00477003)
(0.00840987 0.012615 -4.90913e-08 0.00840987 1.20418e-10 0.00840987)
(0.00840986 0.012615 -4.90803e-08 0.00840987 1.19015e-10 0.00840987)