/*--------------------------------*- C++ -*----------------------------------*\
| =========                 |                                                 |
| \\      /  F ield         | OpenFOAM: The Open Source CFD Toolbox           |
|  \\    /   O peration     | Version:  2.3.0                                 |
|   \\  /    A nd           | Web:      www.OpenFOAM.org                      |
|    \\/     M anipulation  |                                                 |
\*---------------------------------------------------------------------------*/
FoamFile
{
    version     2.0;
    format      ascii;
    class       volVectorField;
    location    "400";
    object      U;
}
// * * * * * * * * * * * * * * * * * * * * * * * * * * * * * * * * * * * * * //

dimensions      [0 1 -1 0 0 0 0];

internalField   nonuniform List<vector> 
600
(
(0.911302 -3.45236e-08 -9.93652e-09)
(0.911302 -8.61825e-08 -7.9059e-09)
(0.911303 -1.04237e-07 -4.22223e-09)
(0.911303 -7.5446e-08 -1.66402e-09)
(0.911304 -7.89062e-09 1.82245e-09)
(0.911303 5.29757e-08 6.1931e-09)
(0.911303 8.24841e-08 8.98608e-09)
(0.911302 8.17243e-08 7.98536e-09)
(0.911302 6.86955e-08 3.6134e-09)
(0.911301 2.93762e-08 -4.62339e-09)
(1.08936 -4.01314e-08 -4.61738e-09)
(1.08936 -4.38988e-08 -5.30788e-09)
(1.08936 -2.83404e-08 -4.78025e-09)
(1.08936 -1.86088e-08 -4.4813e-09)
(1.08936 -5.14832e-09 -2.51811e-09)
(1.08936 1.22245e-08 1.90773e-09)
(1.08936 2.96688e-08 6.28901e-09)
(1.08936 4.04211e-08 7.90195e-09)
(1.08936 4.64923e-08 5.77398e-09)
(1.08936 6.91487e-09 -7.41351e-11)
(1.17214 -1.92607e-08 1.13987e-09)
(1.17214 -3.98699e-08 -3.52136e-09)
(1.17213 -2.56948e-08 -7.73463e-09)
(1.17213 -8.17713e-09 -9.23297e-09)
(1.17213 -1.86758e-10 -6.43791e-09)
(1.17213 3.91068e-09 -4.39893e-10)
(1.17213 1.1653e-08 5.44949e-09)
(1.17214 2.08715e-08 8.48433e-09)
(1.17214 3.30545e-08 7.29214e-09)
(1.17214 1.85499e-08 4.7435e-09)
(1.17213 1.87769e-08 1.16272e-09)
(1.17213 3.81102e-08 -3.53891e-09)
(1.17213 2.43981e-08 -7.81789e-09)
(1.17213 8.70349e-09 -9.31341e-09)
(1.17213 2.16792e-09 -6.47632e-09)
(1.17213 -2.01125e-09 -4.39514e-10)
(1.17213 -1.10896e-08 5.47954e-09)
(1.17213 -2.14066e-08 8.49978e-09)
(1.17213 -3.39173e-08 7.29279e-09)
(1.17213 -1.87648e-08 4.79443e-09)
(1.08936 4.17448e-08 -4.61866e-09)
(1.08936 4.14173e-08 -5.20784e-09)
(1.08936 2.22705e-08 -4.59926e-09)
(1.08936 1.39391e-08 -4.34242e-09)
(1.08936 4.28537e-09 -2.47922e-09)
(1.08936 -1.04985e-08 1.88134e-09)
(1.08936 -2.71387e-08 6.21962e-09)
(1.08936 -3.83745e-08 7.83813e-09)
(1.08936 -4.50043e-08 5.72074e-09)
(1.08936 -4.06621e-09 -1.76314e-10)
(0.911306 3.57418e-08 -9.90878e-09)
(0.911307 8.49003e-08 -7.775e-09)
(0.911307 1.01836e-07 -4.04525e-09)
(0.911308 7.37739e-08 -1.53437e-09)
(0.911308 7.92837e-09 1.85023e-09)
(0.911308 -5.21412e-08 6.14595e-09)
(0.911307 -8.13817e-08 8.87711e-09)
(0.911307 -8.05636e-08 7.87473e-09)
(0.911306 -6.77808e-08 3.52683e-09)
(0.911306 -2.80678e-08 -4.69935e-09)
(0.911282 -2.56626e-08 -2.33373e-08)
(0.911282 -7.89646e-08 -1.82435e-08)
(0.911283 -1.00869e-07 -9.75085e-09)
(0.911284 -7.52531e-08 -4.15094e-09)
(0.911284 -1.08827e-08 3.94622e-09)
(0.911284 4.82e-08 1.45055e-08)
(0.911283 7.6902e-08 2.13099e-08)
(0.911283 7.68971e-08 1.89412e-08)
(0.911282 6.4916e-08 8.35065e-09)
(0.911282 3.16107e-08 -1.11015e-08)
(1.08936 -3.50128e-08 -1.07766e-08)
(1.08936 -4.32545e-08 -1.26896e-08)
(1.08936 -3.35493e-08 -1.18901e-08)
(1.08936 -2.41878e-08 -1.15368e-08)
(1.08936 -7.75401e-09 -6.70096e-09)
(1.08936 1.25231e-08 4.33843e-09)
(1.08936 3.06113e-08 1.53235e-08)
(1.08936 4.09529e-08 1.9432e-08)
(1.08936 4.67845e-08 1.43142e-08)
(1.08936 1.12966e-08 3.28368e-10)
(1.17216 -1.34537e-08 2.59261e-09)
(1.17216 -3.77072e-08 -8.61563e-09)
(1.17216 -2.98707e-08 -1.87663e-08)
(1.17216 -1.40135e-08 -2.26647e-08)
(1.17216 -3.36544e-09 -1.61515e-08)
(1.17216 3.48273e-09 -1.47191e-09)
(1.17216 1.23272e-08 1.31952e-08)
(1.17216 2.13587e-08 2.09803e-08)
(1.17216 3.25183e-08 1.84192e-08)
(1.17216 2.23565e-08 1.18336e-08)
(1.17216 1.29789e-08 2.64332e-09)
(1.17216 3.60104e-08 -8.66067e-09)
(1.17215 2.86532e-08 -1.89459e-08)
(1.17215 1.45739e-08 -2.28258e-08)
(1.17215 5.30583e-09 -1.62322e-08)
(1.17215 -1.60725e-09 -1.47632e-09)
(1.17215 -1.17428e-08 1.32564e-08)
(1.17216 -2.18614e-08 2.10131e-08)
(1.17216 -3.33749e-08 1.84216e-08)
(1.17216 -2.26299e-08 1.19384e-08)
(1.08936 3.66133e-08 -1.07977e-08)
(1.08936 4.09987e-08 -1.25196e-08)
(1.08936 2.79605e-08 -1.15547e-08)
(1.08936 1.99077e-08 -1.12879e-08)
(1.08936 6.99353e-09 -6.63387e-09)
(1.08936 -1.08554e-08 4.29099e-09)
(1.08936 -2.82564e-08 1.52018e-08)
(1.08936 -3.90101e-08 1.93441e-08)
(1.08936 -4.53748e-08 1.42419e-08)
(1.08936 -8.72114e-09 1.36886e-10)
(0.911287 2.69222e-08 -2.3324e-08)
(0.911287 7.76638e-08 -1.80383e-08)
(0.911288 9.83605e-08 -9.45179e-09)
(0.911288 7.35279e-08 -3.93934e-09)
(0.911288 1.08965e-08 3.99522e-09)
(0.911288 -4.73834e-08 1.44349e-08)
(0.911288 -7.58333e-08 2.11518e-08)
(0.911287 -7.57991e-08 1.8809e-08)
(0.911287 -6.40623e-08 8.22906e-09)
(0.911286 -3.02054e-08 -1.12625e-08)
(0.911259 -1.51623e-08 -2.37924e-08)
(0.91126 -7.15721e-08 -1.82098e-08)
(0.91126 -9.8457e-08 -9.85226e-09)
(0.911261 -7.60506e-08 -4.70234e-09)
(0.911261 -1.45229e-08 3.52934e-09)
(0.911261 4.30092e-08 1.48157e-08)
(0.911261 7.11216e-08 2.21772e-08)
(0.91126 7.20443e-08 1.97243e-08)
(0.91126 6.12424e-08 8.3372e-09)
(0.911259 3.51081e-08 -1.16865e-08)
(1.08935 -2.89469e-08 -1.08358e-08)
(1.08935 -4.31489e-08 -1.33418e-08)
(1.08935 -4.0581e-08 -1.32939e-08)
(1.08935 -3.13673e-08 -1.34804e-08)
(1.08935 -1.1092e-08 -8.15242e-09)
(1.08935 1.30207e-08 4.22044e-09)
(1.08935 3.2125e-08 1.66048e-08)
(1.08935 4.22275e-08 2.13424e-08)
(1.08935 4.7839e-08 1.58865e-08)
(1.08935 1.69136e-08 1.1594e-09)
(1.17219 -6.57978e-09 2.50099e-09)
(1.17219 -3.572e-08 -9.2773e-09)
(1.17219 -3.54516e-08 -2.00211e-08)
(1.17219 -2.12515e-08 -2.46695e-08)
(1.17219 -7.35606e-09 -1.81557e-08)
(1.17219 3.10679e-09 -2.25804e-09)
(1.17219 1.34028e-08 1.40791e-08)
(1.17219 2.24399e-08 2.31315e-08)
(1.17219 3.24701e-08 2.0908e-08)
(1.17219 2.70935e-08 1.31597e-08)
(1.17218 6.1374e-09 2.55715e-09)
(1.17218 3.40566e-08 -9.315e-09)
(1.17218 3.42795e-08 -2.01768e-08)
(1.17218 2.18169e-08 -2.4803e-08)
(1.17218 9.22265e-09 -1.82319e-08)
(1.17218 -1.29359e-09 -2.27223e-09)
(1.17218 -1.28305e-08 1.41261e-08)
(1.17218 -2.29007e-08 2.31579e-08)
(1.17218 -3.32925e-08 2.09095e-08)
(1.17218 -2.73803e-08 1.32473e-08)
(1.08935 3.05162e-08 -1.08759e-08)
(1.08935 4.11178e-08 -1.32035e-08)
(1.08935 3.54726e-08 -1.30105e-08)
(1.08935 2.74218e-08 -1.32856e-08)
(1.08935 1.04266e-08 -8.09294e-09)
(1.08935 -1.14228e-08 4.1855e-09)
(1.08935 -2.99606e-08 1.65142e-08)
(1.08935 -4.0335e-08 2.12952e-08)
(1.08935 -4.64469e-08 1.58408e-08)
(1.08935 -1.45887e-08 9.92643e-10)
(0.911264 1.64503e-08 -2.38133e-08)
(0.911264 7.01878e-08 -1.80474e-08)
(0.911265 9.57504e-08 -9.60964e-09)
(0.911265 7.42011e-08 -4.54558e-09)
(0.911266 1.44935e-08 3.56028e-09)
(0.911265 -4.21939e-08 1.47793e-08)
(0.911265 -7.00176e-08 2.20919e-08)
(0.911265 -7.09173e-08 1.96649e-08)
(0.911264 -6.03974e-08 8.24598e-09)
(0.911264 -3.36134e-08 -1.18582e-08)
(0.911244 -7.49229e-09 -1.62417e-08)
(0.911244 -6.71997e-08 -1.22914e-08)
(0.911245 -9.81427e-08 -6.81648e-09)
(0.911245 -7.76882e-08 -3.60455e-09)
(0.911246 -1.74572e-08 2.06168e-09)
(0.911245 3.96616e-08 1.01772e-08)
(0.911245 6.77782e-08 1.55267e-08)
(0.911245 6.94363e-08 1.38364e-08)
(0.911244 5.94076e-08 5.64335e-09)
(0.911244 3.83518e-08 -8.18417e-09)
(1.08935 -2.45024e-08 -7.27676e-09)
(1.08935 -4.33879e-08 -9.41534e-09)
(1.08935 -4.61779e-08 -9.91022e-09)
(1.08935 -3.70736e-08 -1.0382e-08)
(1.08935 -1.38649e-08 -6.45816e-09)
(1.08935 1.33715e-08 2.76552e-09)
(1.08935 3.34867e-08 1.20285e-08)
(1.08935 4.36995e-08 1.56485e-08)
(1.08935 4.92527e-08 1.17535e-08)
(1.08935 2.13221e-08 1.32779e-09)
(1.1722 -1.62776e-09 1.60458e-09)
(1.1722 -3.4626e-08 -6.60897e-09)
(1.1722 -3.99133e-08 -1.41838e-08)
(1.1722 -2.68483e-08 -1.78338e-08)
(1.1722 -1.04836e-08 -1.3491e-08)
(1.1722 2.86572e-09 -2.06274e-09)
(1.1722 1.43679e-08 1.00078e-08)
(1.1722 2.36565e-08 1.69316e-08)
(1.1722 3.29769e-08 1.56649e-08)
(1.1722 3.07796e-08 9.66192e-09)
(1.1722 1.22382e-09 1.64369e-09)
(1.1722 3.30511e-08 -6.62714e-09)
(1.1722 3.88284e-08 -1.42741e-08)
(1.1722 2.74235e-08 -1.79129e-08)
(1.1722 1.22967e-08 -1.35414e-08)
(1.1722 -1.12876e-09 -2.07256e-09)
(1.1722 -1.38367e-08 1.00287e-08)
(1.1722 -2.40999e-08 1.69429e-08)
(1.1722 -3.3783e-08 1.56644e-08)
(1.1722 -3.10976e-08 9.71151e-09)
(1.08935 2.60415e-08 -7.30125e-09)
(1.08935 4.15706e-08 -9.311e-09)
(1.08935 4.14627e-08 -9.72247e-09)
(1.08935 3.33828e-08 -1.0257e-08)
(1.08935 1.32308e-08 -6.41324e-09)
(1.08935 -1.185e-08 2.74824e-09)
(1.08935 -3.14695e-08 1.19771e-08)
(1.08935 -4.1863e-08 1.56127e-08)
(1.08935 -4.79043e-08 1.17077e-08)
(1.08935 -1.9207e-08 1.21405e-09)
(0.911248 8.80795e-09 -1.62429e-08)
(0.911248 6.57875e-08 -1.21569e-08)
(0.911249 9.53349e-08 -6.63989e-09)
(0.91125 7.57831e-08 -3.49056e-09)
(0.91125 1.73419e-08 2.10907e-09)
(0.91125 -3.88498e-08 1.01686e-08)
(0.911249 -6.66577e-08 1.5468e-08)
(0.911249 -6.83299e-08 1.37689e-08)
(0.911249 -5.8618e-08 5.54922e-09)
(0.911248 -3.68422e-08 -8.31315e-09)
(0.911237 -3.85495e-09 -5.72172e-09)
(0.911237 -6.55072e-08 -4.31796e-09)
(0.911238 -9.85119e-08 -2.4476e-09)
(0.911238 -7.88199e-08 -1.37816e-09)
(0.911239 -1.88189e-08 6.32547e-10)
(0.911238 3.82875e-08 3.60514e-09)
(0.911238 6.64963e-08 5.57271e-09)
(0.911238 6.8506e-08 4.97498e-09)
(0.911237 5.88112e-08 1.99417e-09)
(0.911237 4.00871e-08 -2.92145e-09)
(1.08935 -2.23633e-08 -2.54434e-09)
(1.08935 -4.36187e-08 -3.39447e-09)
(1.08935 -4.90526e-08 -3.68033e-09)
(1.08935 -3.999e-08 -3.9178e-09)
(1.08935 -1.52265e-08 -2.46446e-09)
(1.08935 1.35786e-08 9.58375e-10)
(1.08935 3.42599e-08 4.39627e-09)
(1.08935 4.45989e-08 5.75467e-09)
(1.08935 5.01359e-08 4.34417e-09)
(1.08935 2.35375e-08 5.74922e-10)
(1.17221 6.7927e-10 5.27359e-10)
(1.17221 -3.42465e-08 -2.38773e-09)
(1.17221 -4.22175e-08 -5.09702e-09)
(1.17221 -2.96586e-08 -6.48323e-09)
(1.17221 -1.20541e-08 -4.97478e-09)
(1.17221 2.7846e-09 -8.32007e-10)
(1.17221 1.49317e-08 3.61517e-09)
(1.17221 2.44071e-08 6.20571e-09)
(1.17221 3.34082e-08 5.80855e-09)
(1.17221 3.26372e-08 3.53041e-09)
(1.17221 -1.06253e-09 5.40468e-10)
(1.17221 3.27105e-08 -2.39462e-09)
(1.17221 4.11578e-08 -5.12754e-09)
(1.17221 3.02259e-08 -6.50965e-09)
(1.17221 1.38206e-08 -4.99211e-09)
(1.17221 -1.07531e-09 -8.33328e-10)
(1.17221 -1.44096e-08 3.61949e-09)
(1.17221 -2.48391e-08 6.2078e-09)
(1.17221 -3.4208e-08 5.80851e-09)
(1.17221 -3.29641e-08 3.54676e-09)
(1.08935 2.38932e-08 -2.55177e-09)
(1.08935 4.1911e-08 -3.35993e-09)
(1.08935 4.45204e-08 -3.61998e-09)
(1.08935 3.64118e-08 -3.87467e-09)
(1.08935 1.46689e-08 -2.44907e-09)
(1.08935 -1.20727e-08 9.54485e-10)
(1.08935 -3.22946e-08 4.38148e-09)
(1.08935 -4.27871e-08 5.74004e-09)
(1.08935 -4.88146e-08 4.32476e-09)
(1.08935 -2.15205e-08 5.37908e-10)
(0.911241 5.18451e-09 -5.72119e-09)
(0.911241 6.40887e-08 -4.27237e-09)
(0.911242 9.56659e-08 -2.38648e-09)
(0.911243 7.68916e-08 -1.33328e-09)
(0.911243 1.87613e-08 6.71783e-10)
(0.911243 -3.74445e-08 3.60805e-09)
(0.911242 -6.53817e-08 5.54734e-09)
(0.911242 -6.74268e-08 4.94298e-09)
(0.911242 -5.8059e-08 1.95678e-09)
(0.911241 -3.85854e-08 -2.96511e-09)
(0.911237 -3.79073e-09 5.29293e-09)
(0.911237 -6.54799e-08 3.99293e-09)
(0.911237 -9.85215e-08 2.26674e-09)
(0.911238 -7.88418e-08 1.28315e-09)
(0.911238 -1.88438e-08 -5.75874e-10)
(0.911238 3.82638e-08 -3.33119e-09)
(0.911238 6.64754e-08 -5.15965e-09)
(0.911238 6.84917e-08 -4.61197e-09)
(0.911237 5.88029e-08 -1.85436e-09)
(0.911237 4.01194e-08 2.69828e-09)
(1.08935 -2.23245e-08 2.34514e-09)
(1.08935 -4.36232e-08 3.13244e-09)
(1.08935 -4.91048e-08 3.4052e-09)
(1.08935 -4.00432e-08 3.63605e-09)
(1.08935 -1.5252e-08 2.29686e-09)
(1.08935 1.3581e-08 -8.73445e-10)
(1.08935 3.42737e-08 -4.06352e-09)
(1.08935 4.46161e-08 -5.32943e-09)
(1.08935 5.01535e-08 -4.02959e-09)
(1.08935 2.35781e-08 -5.42104e-10)
(1.17221 7.19783e-10 -5.00175e-10)
(1.17221 -3.42409e-08 2.19754e-09)
(1.17221 -4.22595e-08 4.71382e-09)
(1.17221 -2.97094e-08 6.00963e-09)
(1.17221 -1.20824e-08 4.6224e-09)
(1.17221 2.78292e-09 7.87946e-10)
(1.17221 1.49421e-08 -3.33549e-09)
(1.17221 2.44215e-08 -5.74282e-09)
(1.17221 3.34173e-08 -5.38324e-09)
(1.17221 3.26708e-08 -3.27837e-09)
(1.17221 -1.10237e-09 -5.12207e-10)
(1.17221 3.2705e-08 2.2039e-09)
(1.17221 4.11995e-08 4.74225e-09)
(1.17221 3.02759e-08 6.03433e-09)
(1.17221 1.38475e-08 4.63873e-09)
(1.17221 -1.07467e-09 7.89134e-10)
(1.17221 -1.44204e-08 -3.33949e-09)
(1.17221 -2.48529e-08 -5.74479e-09)
(1.17221 -3.42164e-08 -5.38327e-09)
(1.17221 -3.29975e-08 -3.29344e-09)
(1.08935 2.3854e-08 2.35205e-09)
(1.08935 4.19167e-08 3.09995e-09)
(1.08935 4.4575e-08 3.34883e-09)
(1.08935 3.64661e-08 3.59583e-09)
(1.08935 1.46955e-08 2.2833e-09)
(1.08935 -1.20757e-08 -8.69474e-10)
(1.08935 -3.23091e-08 -4.0496e-09)
(1.08935 -4.28041e-08 -5.31554e-09)
(1.08935 -4.88318e-08 -4.01127e-09)
(1.08935 -2.15627e-08 -5.0755e-10)
(0.911241 5.12036e-09 5.29252e-09)
(0.911241 6.4061e-08 3.95027e-09)
(0.911242 9.56746e-08 2.20957e-09)
(0.911242 7.69126e-08 1.24117e-09)
(0.911243 1.87871e-08 -6.12827e-10)
(0.911243 -3.74201e-08 -3.33406e-09)
(0.911242 -6.53608e-08 -5.13591e-09)
(0.911242 -6.74126e-08 -4.58198e-09)
(0.911241 -5.8051e-08 -1.81929e-09)
(0.911241 -3.86176e-08 2.73905e-09)
(0.911243 -7.28328e-09 1.58576e-08)
(0.911244 -6.70936e-08 1.19985e-08)
(0.911244 -9.81507e-08 6.66431e-09)
(0.911245 -7.77429e-08 3.53904e-09)
(0.911245 -1.7533e-08 -1.9986e-09)
(0.911245 3.9578e-08 -9.93938e-09)
(0.911245 6.76964e-08 -1.51787e-08)
(0.911244 6.93741e-08 -1.35314e-08)
(0.911244 5.93652e-08 -5.51821e-09)
(0.911243 3.84469e-08 7.99201e-09)
(1.08935 -2.43795e-08 7.09588e-09)
(1.08935 -4.3398e-08 9.19778e-09)
(1.08935 -4.63377e-08 9.70331e-09)
(1.08935 -3.72363e-08 1.01806e-08)
(1.08935 -1.39406e-08 6.34253e-09)
(1.08935 1.33825e-08 -2.69068e-09)
(1.08935 3.35272e-08 -1.17657e-08)
(1.08935 4.37454e-08 -1.53174e-08)
(1.08935 4.92974e-08 -1.15116e-08)
(1.08935 2.14472e-08 -1.31935e-09)
(1.1722 -1.49507e-09 -1.56905e-09)
(1.1722 -3.46018e-08 6.45364e-09)
(1.1722 -4.00412e-08 1.38625e-08)
(1.1722 -2.70056e-08 1.74486e-08)
(1.1722 -1.05707e-08 1.32158e-08)
(1.1722 2.86097e-09 2.03912e-09)
(1.1722 1.43978e-08 -9.77942e-09)
(1.1722 2.36952e-08 -1.65677e-08)
(1.1722 3.29964e-08 -1.53421e-08)
(1.1722 3.08833e-08 -9.4597e-09)
(1.1722 1.09228e-09 -1.60769e-09)
(1.1722 3.30281e-08 6.47158e-09)
(1.1722 3.89574e-08 1.3951e-08)
(1.1722 2.7581e-08 1.7526e-08)
(1.1722 1.23844e-08 1.32651e-08)
(1.1722 -1.12438e-09 2.04868e-09)
(1.1722 -1.38671e-08 -9.79958e-09)
(1.1722 -2.41386e-08 -1.65787e-08)
(1.1722 -3.38031e-08 -1.53417e-08)
(1.1722 -3.12018e-08 -9.50822e-09)
(1.08935 2.59179e-08 7.11984e-09)
(1.08935 4.15862e-08 9.09462e-09)
(1.08935 4.16318e-08 9.51785e-09)
(1.08935 3.35518e-08 1.00561e-08)
(1.08935 1.33097e-08 6.29641e-09)
(1.08935 -1.18617e-08 -2.67404e-09)
(1.08935 -3.15129e-08 -1.17146e-08)
(1.08935 -4.19107e-08 -1.52803e-08)
(1.08935 -4.7951e-08 -1.14647e-08)
(1.08935 -1.93376e-08 -1.20674e-09)
(0.911248 8.59896e-09 1.58584e-08)
(0.911248 6.56804e-08 1.18645e-08)
(0.911249 9.53402e-08 6.48735e-09)
(0.911249 7.58368e-08 3.42283e-09)
(0.911249 1.74172e-08 -2.04419e-09)
(0.911249 -3.87656e-08 -9.93045e-09)
(0.911249 -6.65759e-08 -1.51185e-08)
(0.911249 -6.82695e-08 -1.34608e-08)
(0.911248 -5.8578e-08 -5.42264e-09)
(0.911248 -3.69382e-08 8.12016e-09)
(0.911259 -1.47977e-08 2.35997e-08)
(0.911259 -7.13417e-08 1.80476e-08)
(0.91126 -9.84095e-08 9.77368e-09)
(0.91126 -7.61052e-08 4.6897e-09)
(0.91126 -1.46536e-08 -3.47732e-09)
(0.91126 4.28372e-08 -1.46961e-08)
(0.91126 7.09415e-08 -2.20194e-08)
(0.911259 7.18996e-08 -1.95872e-08)
(0.911259 6.11376e-08 -8.26687e-09)
(0.911259 3.52488e-08 1.16048e-08)
(1.08935 -2.87322e-08 1.07366e-08)
(1.08935 -4.31529e-08 1.32459e-08)
(1.08935 -4.08376e-08 1.3236e-08)
(1.08935 -3.16299e-08 1.34499e-08)
(1.08935 -1.12154e-08 8.15148e-09)
(1.08935 1.30345e-08 -4.17007e-09)
(1.08935 3.21816e-08 -1.65086e-08)
(1.08935 4.22854e-08 -2.12365e-08)
(1.08935 4.78937e-08 -1.58173e-08)
(1.08935 1.71201e-08 -1.18848e-09)
(1.17219 -6.34161e-09 -2.48012e-09)
(1.17219 -3.5658e-08 9.21299e-09)
(1.17219 -3.5652e-08 1.98905e-08)
(1.17219 -2.15082e-08 2.45388e-08)
(1.17219 -7.50015e-09 1.80892e-08)
(1.17219 3.0936e-09 2.28403e-09)
(1.17219 1.34422e-08 -1.39823e-08)
(1.17219 2.24859e-08 -2.30143e-08)
(1.17219 3.24806e-08 -2.08306e-08)
(1.17219 2.72629e-08 -1.3104e-08)
(1.17218 5.90126e-09 -2.53727e-09)
(1.17218 3.39993e-08 9.24933e-09)
(1.17218 3.44843e-08 2.00454e-08)
(1.17218 2.20742e-08 2.46712e-08)
(1.17218 9.3623e-09 1.81646e-08)
(1.17218 -1.2841e-09 2.29817e-09)
(1.17218 -1.28725e-08 -1.4029e-08)
(1.17218 -2.29465e-08 -2.30408e-08)
(1.17218 -3.33026e-08 -2.08323e-08)
(1.17218 -2.75498e-08 -1.31908e-08)
(1.08935 3.03021e-08 1.07776e-08)
(1.08935 4.11282e-08 1.31044e-08)
(1.08935 3.57419e-08 1.29521e-08)
(1.08935 2.76914e-08 1.32553e-08)
(1.08935 1.05627e-08 8.08902e-09)
(1.08935 -1.1437e-08 -4.13659e-09)
(1.08935 -3.00225e-08 -1.64192e-08)
(1.08935 -4.0392e-08 -2.11897e-08)
(1.08935 -4.65001e-08 -1.57721e-08)
(1.08935 -1.48002e-08 -1.02332e-09)
(0.911263 1.60886e-08 2.36225e-08)
(0.911263 6.99521e-08 1.78835e-08)
(0.911264 9.5692e-08 9.52958e-09)
(0.911265 7.42477e-08 4.5306e-09)
(0.911265 1.4635e-08 -3.50404e-09)
(0.911265 -4.20195e-08 -1.46616e-08)
(0.911264 -6.98344e-08 -2.19372e-08)
(0.911264 -7.07689e-08 -1.95294e-08)
(0.911263 -6.02907e-08 -8.17716e-09)
(0.911263 -3.37485e-08 1.17767e-08)
(0.911281 -2.5243e-08 2.35931e-08)
(0.911282 -7.8636e-08 1.84352e-08)
(0.911282 -1.00722e-07 9.85779e-09)
(0.911283 -7.52472e-08 4.20544e-09)
(0.911283 -1.1012e-08 -3.98582e-09)
(0.911283 4.79787e-08 -1.46747e-08)
(0.911282 7.66405e-08 -2.15574e-08)
(0.911282 7.66696e-08 -1.91534e-08)
(0.911281 6.47387e-08 -8.42659e-09)
(0.911281 3.17264e-08 1.12393e-08)
(1.08936 -3.47665e-08 1.09017e-08)
(1.08936 -4.32336e-08 1.28465e-08)
(1.08936 -3.38083e-08 1.20512e-08)
(1.08936 -2.44563e-08 1.16989e-08)
(1.08936 -7.87141e-09 6.79238e-09)
(1.08936 1.25413e-08 -4.39594e-09)
(1.08936 3.06591e-08 -1.55244e-08)
(1.08936 4.09819e-08 -1.96817e-08)
(1.08936 4.68013e-08 -1.44932e-08)
(1.08936 1.15077e-08 -3.40853e-10)
(1.17216 -1.31816e-08 -2.59916e-09)
(1.17216 -3.76134e-08 8.73268e-09)
(1.17216 -3.00702e-08 1.89902e-08)
(1.17216 -1.42849e-08 2.29372e-08)
(1.17216 -3.51462e-09 1.63525e-08)
(1.17216 3.46746e-09 1.49084e-09)
(1.17216 1.23609e-08 -1.33644e-08)
(1.17216 2.13837e-08 -2.12538e-08)
(1.17216 3.24943e-08 -1.86667e-08)
(1.17216 2.25315e-08 -1.19739e-08)
(1.17216 1.27073e-08 -2.65264e-09)
(1.17216 3.59089e-08 8.77688e-09)
(1.17216 2.88578e-08 1.91712e-08)
(1.17216 1.48549e-08 2.31e-08)
(1.17216 5.45675e-09 1.64353e-08)
(1.17216 -1.58922e-09 1.49641e-09)
(1.17216 -1.17781e-08 -1.34256e-08)
(1.17216 -2.18907e-08 -2.12869e-08)
(1.17216 -3.33568e-08 -1.86692e-08)
(1.17216 -2.28105e-08 -1.20803e-08)
(1.08936 3.63686e-08 1.09265e-08)
(1.08936 4.09795e-08 1.26767e-08)
(1.08936 2.82329e-08 1.17119e-08)
(1.08936 2.01937e-08 1.14465e-08)
(1.08936 7.14486e-09 6.72473e-09)
(1.08936 -1.0866e-08 -4.34737e-09)
(1.08936 -2.83098e-08 -1.54008e-08)
(1.08936 -3.90444e-08 -1.95931e-08)
(1.08936 -4.5397e-08 -1.44217e-08)
(1.08936 -8.94285e-09 -1.47507e-10)
(0.911286 2.65087e-08 2.35849e-08)
(0.911286 7.73348e-08 1.82304e-08)
(0.911287 9.82046e-08 9.55402e-09)
(0.911287 7.35165e-08 3.99035e-09)
(0.911287 1.10552e-08 -4.03819e-09)
(0.911287 -4.71558e-08 -1.4603e-08)
(0.911287 -7.55723e-08 -2.1398e-08)
(0.911286 -7.55744e-08 -1.90219e-08)
(0.911286 -6.38885e-08 -8.30697e-09)
(0.911286 -3.03127e-08 1.14026e-08)
(0.911301 -3.43103e-08 1.06863e-08)
(0.911302 -8.60303e-08 8.49431e-09)
(0.911302 -1.04189e-07 4.52684e-09)
(0.911303 -7.5467e-08 1.78263e-09)
(0.911303 -7.96491e-09 -1.95467e-09)
(0.911303 5.28732e-08 -6.65546e-09)
(0.911302 8.23703e-08 -9.65746e-09)
(0.911302 8.16291e-08 -8.57838e-09)
(0.911301 6.86223e-08 -3.87281e-09)
(0.911301 2.94418e-08 4.98255e-09)
(1.08936 -4.0016e-08 4.9715e-09)
(1.08936 -4.38897e-08 5.72656e-09)
(1.08936 -2.84712e-08 5.15903e-09)
(1.08936 -1.87467e-08 4.83281e-09)
(1.08936 -5.20515e-09 2.7108e-09)
(1.08936 1.22375e-08 -2.06042e-09)
(1.08936 2.96983e-08 -6.7799e-09)
(1.08936 4.04391e-08 -8.51461e-09)
(1.08936 4.65025e-08 -6.22072e-09)
(1.08936 7.01715e-09 7.43721e-11)
(1.17214 -1.91289e-08 -1.21695e-09)
(1.17214 -3.98264e-08 3.8141e-09)
(1.17214 -2.57993e-08 8.34577e-09)
(1.17214 -8.31776e-09 9.94998e-09)
(1.17214 -2.57765e-10 6.93074e-09)
(1.17214 3.90511e-09 4.6257e-10)
(1.17214 1.16721e-08 -5.88534e-09)
(1.17214 2.08848e-08 -9.15477e-09)
(1.17214 3.30442e-08 -7.87022e-09)
(1.17214 1.86428e-08 -5.11322e-09)
(1.17213 1.8641e-08 -1.23758e-09)
(1.17213 3.80718e-08 3.8346e-09)
(1.17213 2.45115e-08 8.43235e-09)
(1.17213 8.85178e-09 1.00331e-08)
(1.17213 2.24459e-09 6.97014e-09)
(1.17213 -2.00395e-09 4.61478e-10)
(1.17213 -1.11109e-08 -5.91666e-09)
(1.17213 -2.14238e-08 -9.17037e-09)
(1.17213 -3.3911e-08 -7.87039e-09)
(1.17213 -1.8863e-08 -5.16577e-09)
(1.08936 4.16344e-08 4.96919e-09)
(1.08936 4.1416e-08 5.62612e-09)
(1.08936 2.24071e-08 4.97616e-09)
(1.08936 1.40802e-08 4.69376e-09)
(1.08936 4.34568e-09 2.67481e-09)
(1.08936 -1.05111e-08 -2.03316e-09)
(1.08936 -2.71691e-08 -6.71011e-09)
(1.08936 -3.83928e-08 -8.45159e-09)
(1.08936 -4.50161e-08 -6.16625e-09)
(1.08936 -4.1725e-09 1.79871e-10)
(0.911306 3.55361e-08 1.06518e-08)
(0.911306 8.47476e-08 8.36139e-09)
(0.911307 1.01779e-07 4.35248e-09)
(0.911307 7.37873e-08 1.65812e-09)
(0.911308 8.00271e-09 -1.9874e-09)
(0.911307 -5.20387e-08 -6.60785e-09)
(0.911307 -8.12676e-08 -9.54665e-09)
(0.911306 -8.04682e-08 -8.46643e-09)
(0.911306 -6.77091e-08 -3.78187e-09)
(0.911306 -2.81281e-08 5.05982e-09)
)
;

boundaryField
{
    bottomWall
    {
        type            fixedValue;
        value           uniform (0 0 0);
    }
    topWall
    {
        type            fixedValue;
        value           uniform (0 0 0);
    }
    sides1_half0
    {
        type            cyclic;
    }
    sides1_half1
    {
        type            cyclic;
    }
    inout1_half0
    {
        type            cyclic;
    }
    inout1_half1
    {
        type            cyclic;
    }
}


// ************************************************************************* //
